CO adsorption on Ni(111)                
   3.53000000000000     
     0.707107    0.000000    0.000000
    -0.353553    0.612372    0.000000
     0.000000    0.000000    5.196152
   Ni   C    O 
   5   1   1
Direct
  0.000000  0.000000  0.000000
  0.333333  0.666667  0.111111
  0.666667  0.333333  0.222222
  0.000000  0.000000  0.333333
  0.333333  0.666667  0.444444
  0.333333  0.666667  0.540291
  0.333333  0.666667  0.602989
 
   24   24  180
  1378.9      1315.8      1142.2      899.47      639.09      406.30      229.69      118.00      62.558      43.024    
  35.951      31.686      30.277      31.687      35.951      43.024      62.558      118.00      229.69      406.30    
  639.09      899.47      1142.2      1315.8      1315.8      1315.8      1197.5      990.17      740.75      497.84    
  298.08      159.53      81.529      48.861      38.631      33.091      30.312      30.313      33.093      38.630    
  48.860      81.529      159.53      298.07      497.84      740.76      990.18      1197.5      1142.2      1197.5    
  1142.2      990.17      777.82      550.47      348.17      196.17      101.82      56.501      41.034      34.531    
  30.575      29.280      30.574      34.530      41.035      56.503      101.82      196.17      348.17      550.47    
  777.83      990.18      899.47      990.10      990.10      899.47      740.76      550.47      366.57      217.70    
  117.48      64.013      43.308      35.790      30.961      28.601      28.599      30.957      35.789      43.310    
  64.015      117.49      217.70      366.57      550.47      740.76      639.09      740.68      777.71      740.68    
  639.10      497.85      348.17      217.70      123.38      68.705      45.149      36.698      31.339      28.217    
  27.217      28.217      31.338      36.696      45.150      68.705      123.38      217.70      348.17      497.84    
  406.30      497.81      550.39      550.40      497.82      406.31      298.08      196.18      117.49      68.704    
  45.872      37.165      31.608      28.037      26.360      26.360      28.037      31.608      37.164      45.872    
  68.705      117.49      196.17      298.07      229.69      298.12      348.20      366.60      348.21      298.12    
  229.69      159.52      101.82      64.010      45.149      37.166      31.706      27.974      25.914      25.268    
  25.916      27.977      31.706      37.164      45.150      64.015      101.82      159.53      118.00      159.64    
  196.35      217.90      217.90      196.35      159.64      117.99      81.518      56.496      43.309      36.700    
  31.612      27.975      25.779      24.780      24.784      25.786      27.977      31.608      36.697      43.311    
  56.503      81.529      62.558      81.692      102.11      117.85      123.76      117.84      102.10      81.686    
  62.556      48.862      41.039      35.794      31.340      28.037      25.916      24.784      24.435      24.784    
  25.916      28.037      31.338      35.790      41.035      48.860      43.024      49.045      56.848      64.480    
  69.231      69.229      64.476      56.847      49.049      43.033      38.639      34.536      30.958      28.215    
  26.361      25.274      24.784      24.780      25.268      26.359      28.216      30.957      34.530      38.630    
  35.951      38.819      41.398      43.818      45.756      46.513      45.755      43.819      41.403      38.828    
  35.958      33.095      30.572      28.595      27.215      26.361      25.916      25.779      25.914      26.360    
  27.217      28.599      30.574      33.093      31.686      33.281      34.900      36.316      37.342      37.874    
  37.873      37.341      36.317      34.904      33.285      31.686      30.309      29.273      28.595      28.216    
  28.037      27.974      27.974      28.039      28.218      28.600      29.280      30.314      30.277      30.502    
  30.948      31.498      32.010      32.366      32.494      32.369      32.011      31.495      30.945      30.499    
  30.270      30.306      30.572      30.960      31.340      31.609      31.706      31.611      31.339      30.958    
  30.575      30.314      31.687      30.503      29.655      29.146      28.906      28.831      28.826      28.829    
  28.835      28.905      29.140      29.648      30.497      31.682      33.095      34.538      35.794      36.698    
  37.166      37.167      36.697      35.787      34.531      33.093      35.951      33.282      30.947      29.144    
  27.913      27.176      26.808      26.700      26.810      27.178      27.911      29.140      30.945      33.285    
  35.958      38.639      41.039      43.309      45.149      45.872      45.149      43.308      41.034      38.631    
  43.024      38.820      34.899      31.494      28.907      27.179      26.178      25.736      25.740      26.184    
  27.178      28.904      31.498      34.908      38.828      43.030      48.861      56.500      64.010      68.701    
  68.705      64.017      56.501      48.857      62.558      49.048      41.399      36.313      32.008      28.835    
  26.810      25.741      25.416      25.745      26.810      28.830      32.011      36.322      41.403      49.044    
  62.556      81.523      101.82      117.48      123.38      117.49      101.82      81.524      118.00      81.697    
  56.850      43.818      37.339      32.366      28.828      26.707      25.746      25.743      26.700      28.823    
  32.367      37.344      43.819      56.844      81.686      118.00      159.52      196.17      217.70      217.70    
  196.17      159.53      229.69      159.64      102.11      64.481      45.756      37.872      32.494      28.828    
  26.810      26.178      26.808      28.826      32.494      37.873      45.755      64.476      102.10      159.64    
  229.69      298.08      348.17      366.57      348.17      298.08      406.30      298.11      196.35      117.85    
  69.234      46.512      37.872      32.365      28.829      27.173      27.176      28.836      32.368      37.873    
  46.513      69.231      117.84      196.35      298.12      406.31      497.85      550.47      550.47      497.84    
  639.09      497.81      348.20      217.89      123.76      69.231      45.756      37.342      32.008      28.905    
  27.913      28.908      32.010      37.340      45.756      69.234      123.76      217.90      348.21      497.82    
  639.10      740.75      777.82      740.75      899.47      740.69      550.40      366.59      217.89      117.84    
  64.481      43.822      36.318      31.496      29.144      29.145      31.496      36.314      43.818      64.481    
  117.85      217.90      366.60      550.40      740.68      899.47      990.17      990.17      1142.2      990.11    
  777.72      550.40      348.20      196.35      102.11      56.850      41.399      34.899      30.947      29.655    
  30.948      34.900      41.398      56.848      102.11      196.35      348.20      550.39      777.71      990.10    
  1142.2      1197.5      1315.8      1197.5      990.11      740.69      497.81      298.12      159.64      81.693    
  49.043      38.817      33.282      30.506      30.505      33.282      38.819      49.044      81.692      159.64    
  298.12      497.81      740.68      990.10      1197.5      1315.8      1319.0      1258.6      1092.5      860.17    
  610.73      387.74      218.88      112.64      60.457      42.332      35.501      31.365      30.005      31.368    
  35.501      42.329      60.457      112.64      218.88      387.74      610.73      860.18      1092.5      1258.6    
  1258.6      1258.6      1146.0      948.18      709.68      476.88      285.23      152.55      78.379      47.749    
  38.092      32.686      29.994      29.997      32.688      38.089      47.747      78.380      152.55      285.22    
  476.88      709.69      948.19      1146.0      1092.5      1144.9      1092.5      948.18      745.86      528.37    
  334.19      188.15      97.821      54.898      40.417      34.059      30.210      28.955      30.209      34.058    
  40.418      54.900      97.821      188.15      334.19      528.37      745.87      948.19      860.17      945.80    
  945.80      860.17      709.69      528.38      352.25      209.20      112.97      62.015      42.556      35.274    
  30.554      28.263      28.263      30.552      35.273      42.558      62.018      112.97      209.19      352.25    
  528.37      709.69      610.73      706.51      741.33      706.52      610.74      476.88      334.19      209.20    
  118.70      66.497      44.279      36.158      30.902      27.865      26.896      27.865      30.901      36.157    
  44.279      66.498      118.70      209.19      334.19      476.88      387.74      473.91      523.20      523.21    
  473.91      387.75      285.23      188.15      112.97      66.496      44.956      36.618      31.152      27.671    
  26.044      26.044      27.670      31.152      36.618      44.956      66.497      112.97      188.15      285.23    
  218.88      283.21      330.05      347.21      330.06      283.22      218.88      152.55      97.813      62.013    
  44.278      36.619      31.245      27.599      25.597      24.972      25.599      27.601      31.244      36.618    
  44.279      62.018      97.821      152.55      112.64      151.64      185.86      205.88      205.88      185.86    
  151.63      112.63      78.369      54.894      42.557      36.161      31.157      27.600      25.461      24.492    
  24.495      25.467      27.601      31.153      36.158      42.559      54.900      78.378      60.457      78.213    
  97.129      111.66      117.12      111.66      97.124      78.209      60.455      47.748      40.422      35.277    
  30.904      27.671      25.599      24.494      24.154      24.495      25.599      27.670      30.901      35.272    
  40.418      47.747      42.332      47.898      55.048      62.025      66.364      66.363      62.023      55.048    
  47.902      42.338      38.099      34.063      30.551      27.862      26.044      24.977      24.494      24.491    
  24.972      26.043      27.864      30.551      34.058      38.091      35.501      38.322      40.825      43.072    
  44.836      45.521      44.836      43.073      40.829      38.329      35.508      32.691      30.207      28.259    
  26.894      26.044      25.599      25.461      25.597      26.044      26.896      28.263      30.209      32.688    
  31.365      32.949      34.549      35.943      36.948      37.467      37.466      36.946      35.942      34.552    
  32.953      31.366      29.992      28.949      28.259      27.863      27.671      27.599      27.599      27.672    
  27.866      28.264      28.955      29.996      30.005      30.269      30.740      31.301      31.813      32.165    
  32.292      32.168      31.813      31.297      30.737      30.267      29.999      29.989      30.207      30.554    
  30.904      31.154      31.245      31.155      30.902      30.551      30.210      29.997      31.368      30.271    
  29.495      29.041      28.835      28.777      28.778      28.780      28.781      28.835      29.037      29.490    
  30.264      31.362      32.691      34.066      35.277      36.159      36.619      36.620      36.157      35.270    
  34.059      32.691      35.501      32.951      30.738      29.040      27.884      27.194      26.848      26.747    
  26.851      27.196      27.884      29.037      30.737      32.953      35.508      38.099      40.422      42.557    
  44.278      44.956      44.279      42.556      40.417      38.092      42.329      38.322      34.549      31.297    
  28.837      27.196      26.246      25.826      25.831      26.253      27.196      28.834      31.299      34.556    
  38.329      42.335      47.749      54.897      62.013      66.494      66.498      62.020      54.898      47.744    
  60.457      47.900      40.826      35.939      31.811      28.781      26.851      25.831      25.521      25.835    
  26.851      28.777      31.813      35.946      40.829      47.897      60.455      78.373      97.813      112.96    
  118.70      112.97      97.821      78.375      112.64      78.218      55.050      43.071      36.944      32.166    
  28.781      26.754      25.835      25.832      26.747      28.775      32.165      36.948      43.073      55.045    
  78.208      112.63      152.55      188.15      209.20      209.20      188.15      152.55      218.88      151.64    
  97.130      62.027      44.836      37.464      32.292      28.781      26.851      26.246      26.848      28.778    
  32.292      37.466      44.836      62.023      97.124      151.63      218.88      285.23      334.19      352.25    
  334.19      285.23      387.74      283.20      185.86      111.67      66.367      45.520      37.464      32.165    
  28.776      27.191      27.194      28.782      32.168      37.466      45.521      66.365      111.66      185.86    
  283.22      387.75      476.89      528.38      528.37      476.88      610.73      473.90      330.05      205.88    
  117.12      66.364      44.836      36.947      31.811      28.834      27.884      28.838      31.813      36.945    
  44.836      66.367      117.12      205.88      330.06      473.91      610.74      709.69      745.86      709.69    
  860.18      706.52      523.21      347.20      205.87      111.66      62.027      43.076      35.943      31.298    
  29.040      29.041      31.298      35.939      43.072      62.028      111.66      205.88      347.21      523.21    
  706.52      860.17      948.18      948.18      1092.5      945.81      741.34      523.21      330.05      185.86    
  97.130      55.050      40.826      34.549      30.738      29.495      30.740      34.549      40.825      55.048    
  97.129      185.86      330.05      523.20      741.33      945.80      1092.5      1146.0      1258.6      1144.9    
  945.81      706.52      473.91      283.21      151.64      78.213      47.896      38.321      32.951      30.271    
  30.271      32.952      38.322      47.895      78.213      151.64      283.21      473.90      706.51      945.80    
  1144.9      1258.6      1156.7      1103.7      957.78      753.26      533.47      337.29      189.78      98.538    
  55.169      40.564      34.214      30.372      29.123      30.377      34.213      40.558      55.169      98.544    
  189.79      337.29      533.47      753.27      957.78      1103.7      1103.7      1103.7      1005.2      831.65    
  621.82      416.67      248.24      132.86      69.902      44.932      36.607      31.532      29.046      29.048    
  31.534      36.604      44.930      69.903      132.86      248.23      416.68      621.83      831.66      1005.2    
  957.78      1003.5      957.78      831.65      654.20      462.78      291.79      163.97      86.286      50.636    
  38.777      32.763      29.186      28.031      29.185      32.763      38.778      50.638      86.286      163.97    
  291.79      462.79      654.21      831.66      753.26      827.79      827.79      753.26      621.82      462.79    
  307.93      182.53      99.260      56.415      40.588      33.874      29.457      27.343      27.343      29.456    
  33.873      40.590      56.419      99.262      182.53      307.93      462.79      621.82      533.47      616.71    
  646.90      616.72      533.48      416.68      291.80      182.53      104.21      60.106      41.970      34.695    
  29.745      26.933      26.044      26.934      29.744      34.694      41.971      60.108      104.20      182.53    
  291.79      416.68      337.30      411.95      454.53      454.53      411.95      337.30      248.24      163.97    
  99.259      60.106      42.508      35.127      29.957      26.722      25.226      25.225      26.721      29.957    
  35.127      42.508      60.106      99.260      163.97      248.24      189.79      245.08      285.28      299.98    
  285.29      245.08      189.78      132.86      86.279      56.414      41.971      35.129      30.037      26.639    
  24.792      24.217      24.793      26.639      30.035      35.127      41.971      56.419      86.286      132.86    
  98.539      131.45      160.43      177.38      177.38      160.43      131.45      98.532      69.893      50.633    
  40.590      34.698      29.961      26.639      24.658      23.763      23.766      24.662      26.639      29.958    
  34.695      40.591      50.638      69.900      55.169      69.643      85.225      97.260      101.78      97.258    
  85.222      69.641      55.168      44.931      38.781      33.876      29.746      26.722      24.792      23.766    
  23.449      23.766      24.793      26.722      29.744      33.872      38.778      44.931      40.563      45.128    
  50.817      56.382      59.857      59.857      56.383      50.820      45.132      40.567      36.612      32.766    
  29.454      26.931      25.226      24.221      23.765      23.763      24.217      25.225      26.932      29.454    
  32.763      36.608      34.213      36.923      39.325      41.271      42.700      43.244      42.700      41.272    
  39.329      36.928      34.218      31.536      29.184      27.340      26.042      25.226      24.792      24.658    
  24.792      25.226      26.044      27.343      29.185      31.534      30.372      31.901      33.447      34.796    
  35.771      36.275      36.274      35.768      34.792      33.447      31.904      30.375      29.045      28.027    
  27.340      26.932      26.722      26.638      26.639      26.724      26.935      27.344      28.031      29.046    
  29.123      29.434      29.931      30.501      31.010      31.355      31.478      31.357      31.008      30.496    
  29.929      29.434      29.119      29.042      29.184      29.457      29.746      29.958      30.037      29.960    
  29.745      29.454      29.186      29.049      30.377      29.436      28.792      28.434      28.286      28.257    
  28.268      28.269      28.260      28.286      28.432      28.790      29.431      30.371      31.536      32.768    
  33.875      34.695      35.129      35.129      34.693      33.869      32.763      31.538      34.214      31.903    
  29.930      28.433      27.422      26.820      26.518      26.429      26.520      26.823      27.424      28.432    
  29.929      31.904      34.218      36.612      38.781      40.590      41.971      42.508      41.970      40.588    
  38.777      36.607      40.559      36.923      33.446      30.498      28.288      26.821      25.973      25.599    
  25.603      25.981      26.823      28.286      30.499      33.451      36.928      40.565      44.932      50.636    
  56.414      60.104      60.107      56.420      50.636      44.926      55.169      45.130      39.326      34.791    
  31.008      28.260      26.521      25.603      25.324      25.607      26.520      28.256      31.008      34.796    
  39.329      45.129      55.168      69.897      86.279      99.255      104.21      99.264      86.286      69.898    
  98.543      69.648      50.820      41.269      35.766      31.356      28.271      26.436      25.606      25.603    
  26.429      28.265      31.354      35.768      41.272      50.817      69.640      98.534      132.86      163.96    
  182.53      182.53      163.97      132.86      189.78      131.45      85.227      56.385      42.699      36.273    
  31.479      28.271      26.521      25.973      26.518      28.268      31.478      36.274      42.700      56.383    
  85.222      131.45      189.78      248.24      291.80      307.93      291.79      248.24      337.29      245.07    
  160.43      97.264      59.860      43.242      36.273      31.356      28.257      26.817      26.820      28.262    
  31.358      36.275      43.244      59.859      97.258      160.43      245.08      337.30      416.68      462.79    
  462.78      416.67      533.47      411.95      285.28      177.38      101.78      59.857      42.699      35.769    
  31.008      28.285      27.422      28.289      31.010      35.768      42.700      59.861      101.78      177.38    
  285.29      411.95      533.48      621.82      654.20      621.82      753.27      616.72      454.54      299.98    
  177.38      97.259      56.385      41.274      34.795      30.498      28.433      28.434      30.498      34.792    
  41.271      56.385      97.260      177.38      299.98      454.54      616.72      753.26      831.65      831.66    
  957.78      827.80      646.90      454.54      285.28      160.43      85.227      50.820      39.326      33.446    
  29.930      28.792      29.931      33.447      39.325      50.817      85.225      160.43      285.28      454.53    
  646.90      827.79      957.78      1005.2      1103.7      1003.5      827.80      616.72      411.95      245.08    
  131.45      69.642      45.127      36.924      31.903      29.435      29.437      31.906      36.923      45.125    
  69.644      131.46      245.08      411.95      616.72      827.80      1003.5      1103.7      926.74      884.04    
  766.33      601.13      423.66      266.16      149.58      79.838      48.582      38.108      32.325      28.923    
  27.833      28.929      32.325      38.101      48.581      79.844      149.59      266.16      423.67      601.13    
  766.33      884.03      884.04      884.04      804.80      664.97      495.56      330.21      195.72      105.75    
  58.879      41.385      34.406      29.850      27.667      27.669      29.852      34.403      41.382      58.879    
  105.75      195.72      330.21      495.57      664.97      804.80      766.33      802.99      766.33      664.97    
  521.99      367.66      230.54      129.78      70.739      45.250      36.347      30.867      27.703      26.693    
  27.702      30.867      36.348      45.251      70.739      129.78      230.54      367.66      521.99      664.97    
  601.13      660.84      660.84      601.13      495.57      367.66      243.53      144.31      80.357      49.183    
  37.902      31.807      27.867      26.016      26.017      27.867      31.806      37.903      49.187      80.359    
  144.30      243.52      367.66      495.56      423.67      490.21      514.30      490.21      423.67      330.21    
  230.54      144.30      84.064      51.735      38.935      32.516      28.065      25.593      24.819      25.594    
  28.065      32.516      38.936      51.737      84.063      144.30      230.54      330.21      266.16      325.40    
  359.19      359.19      325.40      266.16      195.72      129.78      80.355      51.736      39.314      32.895    
  28.218      25.360      24.054      24.052      25.358      28.218      32.896      39.314      51.736      80.357    
  129.78      195.72      149.59      192.68      224.15      235.67      224.15      192.68      149.58      105.74    
  70.734      49.184      38.935      32.897      28.277      25.259      23.638      23.137      23.639      25.259    
  28.276      32.896      38.936      49.187      70.739      105.75      79.839      104.55      126.60      139.57    
  139.57      126.60      104.54      79.835      58.873      45.249      37.904      32.520      28.222      25.259    
  23.508      22.722      22.724      23.512      25.259      28.219      32.517      37.904      45.251      58.876    
  48.581      58.807      70.061      78.880      82.215      78.878      70.061      58.809      48.582      41.384    
  36.350      31.808      28.066      25.358      23.638      22.723      22.440      22.723      23.639      25.359    
  28.065      31.804      36.348      41.383      38.107      41.719      45.720      49.579      52.000      52.001    
  49.582      45.725      41.723      38.109      34.408      30.867      27.864      25.591      24.053      23.140    
  22.722      22.720      23.137      24.053      25.593      27.865      30.867      34.408      32.325      34.863    
  37.158      38.943      40.092      40.504      40.092      38.943      37.159      34.865      32.327      29.853    
  27.701      26.015      24.818      24.053      23.638      23.508      23.638      24.054      24.819      26.017    
  27.702      29.852      28.923      30.368      31.834      33.123      34.063      34.554      34.552      34.059    
  33.117      31.831      30.369      28.926      27.668      26.692      26.015      25.593      25.359      25.258    
  25.259      25.361      25.594      26.017      26.693      27.667      27.833      28.207      28.740      29.325    
  29.838      30.184      30.306      30.184      29.835      29.320      28.739      28.208      27.831      27.665    
  27.701      27.867      28.066      28.219      28.277      28.221      28.065      27.864      27.703      27.670    
  28.929      28.208      27.749      27.529      27.473      27.496      27.528      27.529      27.497      27.474    
  27.530      27.751      28.206      28.922      29.853      30.869      31.807      32.516      32.897      32.898    
  32.515      31.802      30.867      29.857      32.325      30.369      28.739      27.530      26.731      26.265    
  26.036      25.970      26.038      26.268      26.733      27.530      28.739      30.369      32.327      34.408    
  36.350      37.904      38.935      39.314      38.935      37.902      36.347      34.406      38.102      34.863    
  31.833      29.323      27.476      26.266      25.575      25.272      25.276      25.581      26.268      27.474    
  29.323      31.835      34.865      38.107      41.385      45.252      49.184      51.734      51.736      49.187    
  45.250      41.379      48.582      41.721      37.159      33.118      29.837      27.499      26.038      25.275    
  25.045      25.279      26.038      27.495      29.835      33.119      37.159      41.720      48.582      58.876    
  70.734      80.353      84.064      80.359      70.739      58.876      79.844      58.811      45.723      38.941    
  34.059      30.184      27.531      25.975      25.278      25.276      25.970      27.525      30.181      34.059    
  38.943      45.723      58.807      79.836      105.74      129.77      144.30      144.30      129.78      105.75    
  149.58      104.55      70.063      49.582      40.090      34.551      30.307      27.531      26.038      25.575    
  26.036      27.528      30.306      34.552      40.092      49.582      70.061      104.54      149.58      195.72    
  230.54      243.53      230.54      195.72      266.15      192.67      126.60      78.884      52.002      40.499    
  34.551      30.185      27.496      26.262      26.265      27.500      30.187      34.554      40.504      52.003    
  78.880      126.59      192.68      266.16      330.21      367.66      367.66      330.20      423.66      325.39    
  224.15      139.58      82.216      51.999      40.090      34.062      29.837      27.473      26.731      27.476    
  29.838      34.060      40.092      52.003      82.215      139.57      224.15      325.40      423.67      495.56    
  521.99      495.56      601.13      490.21      359.19      235.67      139.57      78.879      49.582      38.945    
  33.121      29.323      27.530      27.530      29.322      33.118      38.943      49.581      78.878      139.57    
  235.67      359.19      490.21      601.12      664.97      664.97      766.33      660.85      514.31      359.19    
  224.15      126.60      70.063      45.723      37.159      31.833      28.739      27.749      28.740      31.834    
  37.158      45.720      70.061      126.60      224.15      359.19      514.30      660.84      766.33      804.80    
  884.03      802.99      660.85      490.21      325.40      192.67      104.55      58.806      41.719      34.865    
  30.369      28.206      28.209      30.373      34.863      41.716      58.808      104.55      192.68      325.39    
  490.21      660.85      802.99      884.03      673.92      642.43      555.57      433.77      303.59      189.69    
  107.92      61.734      42.660      35.172      30.136      27.278      26.377      27.283      30.136      35.167    
  42.659      61.740      107.93      189.69      303.60      433.78      555.57      642.42      642.43      642.43    
  584.04      480.96      356.33      235.75      139.79      78.339      48.638      37.837      31.796      27.915    
  26.099      26.100      27.916      31.795      37.835      48.636      78.337      139.79      235.75      356.33    
  480.96      584.04      555.57      582.54      555.57      480.96      375.79      262.94      164.30      94.269    
  55.739      40.283      33.396      28.652      25.999      25.165      25.999      28.652      33.397      40.283    
  55.738      94.267      164.30      262.94      375.79      480.96      433.77      477.62      477.62      433.78    
  356.33      262.94      173.51      104.08      61.678      42.537      34.718      29.359      26.025      24.490    
  24.491      26.026      29.358      34.718      42.541      61.680      104.07      173.51      262.94      356.33    
  303.60      352.13      369.73      352.13      303.60      235.75      164.30      104.08      64.003      43.986    
  35.583      29.907      26.106      24.043      23.404      24.043      26.105      29.908      35.584      43.987    
  64.003      104.07      164.30      235.75      189.69      232.19      256.57      256.57      232.19      189.69    
  139.79      94.264      61.676      43.987      35.883      30.205      26.180      23.777      22.691      22.690    