CO adsorption on Ni(111)                
   3.53000000000000     
     0.707107    0.000000    0.000000
    -0.353553    0.612372    0.000000
     0.000000    0.000000    5.196152
   Ni   C    O 
   5   1   1
Direct
  0.000000  0.000000  0.000000
  0.333333  0.666667  0.111111
  0.666667  0.333333  0.222222
  0.000000  0.000000  0.333027
  0.333333  0.666667  0.444519
  0.333333  0.666667  0.540204
  0.333333  0.666667  0.603156
 
   24   24  180
 0.13789025490E+04 0.13157243768E+04 0.11421034958E+04 0.89940307997E+03 0.63904394049E+03
 0.40627653341E+03 0.22967462103E+03 0.11798914474E+03 0.62545328010E+02 0.43022122954E+02
 0.35950763126E+02 0.31679290505E+02 0.30266085822E+02 0.31679434067E+02 0.35950742590E+02
 0.43021941101E+02 0.62545304553E+02 0.11798930035E+03 0.22967466002E+03 0.40627644130E+03
 0.63904399193E+03 0.89940325238E+03 0.11421034868E+04 0.13157242093E+04 0.13157243623E+04
 0.13157297298E+04 0.11974571128E+04 0.99009950799E+03 0.74069337146E+03 0.49780831325E+03
 0.29806344425E+03 0.15951711058E+03 0.81514201302E+02 0.48853301362E+02 0.38631144784E+02
 0.33085983470E+02 0.30301694704E+02 0.30303695417E+02 0.33088340329E+02 0.38629879375E+02
 0.48850883970E+02 0.81513017003E+02 0.15951445086E+03 0.29805922017E+03 0.49780820779E+03
 0.74069761546E+03 0.99009910016E+03 0.11974489409E+04 0.11421034908E+04 0.11974252838E+04
 0.11421024742E+04 0.99009772247E+03 0.77776260189E+03 0.55043306136E+03 0.34814966576E+03
 0.19616250808E+03 0.10180908364E+03 0.56488430239E+02 0.41030588594E+02 0.34527562448E+02
 0.30566837195E+02 0.29269623155E+02 0.30566671506E+02 0.34527479055E+02 0.41030786307E+02
 0.56488799361E+02 0.10180929426E+03 0.19616238612E+03 0.34814946444E+03 0.55043330049E+03
 0.77776356993E+03 0.99009910331E+03 0.89940310980E+03 0.99003179005E+03 0.99002968173E+03
 0.89939938571E+03 0.74069618559E+03 0.55043325742E+03 0.36655276285E+03 0.21769034082E+03
 0.11747169420E+03 0.63998643814E+02 0.43300700459E+02 0.35786741897E+02 0.30953755056E+02
 0.28592216331E+02 0.28591044103E+02 0.30951819020E+02 0.35786344272E+02 0.43301960919E+02
 0.64000733316E+02 0.11747452215E+03 0.21769320413E+03 0.36655402212E+03 0.55043330548E+03
 0.74069782076E+03 0.63904400857E+03 0.74062025604E+03 0.77765203499E+03 0.74062118410E+03
 0.63904475067E+03 0.49780914836E+03 0.34815035780E+03 0.21769383554E+03 0.12336753654E+03
 0.68691355165E+02 0.45139560113E+02 0.36692404606E+02 0.31332363740E+02 0.28210081099E+02
 0.27210195746E+02 0.28210423963E+02 0.31332140835E+02 0.36691762156E+02 0.45139555548E+02
 0.68691835119E+02 0.12336724985E+03 0.21769268470E+03 0.34814947420E+03 0.49780874585E+03
 0.40627661548E+03 0.49777584092E+03 0.55035539048E+03 0.55035421125E+03 0.49777464959E+03
 0.40627865009E+03 0.29806417120E+03 0.19616624818E+03 0.11747615996E+03 0.68692891261E+02
 0.45862289533E+02 0.37157758130E+02 0.31599792381E+02 0.28030211965E+02 0.26355268740E+02
 0.26354752049E+02 0.28029599574E+02 0.31600042486E+02 0.37157989475E+02 0.45861461887E+02
 0.68691312875E+02 0.11747386421E+03 0.19616239769E+03 0.29805970455E+03 0.22967468237E+03
 0.29810381355E+03 0.34818199144E+03 0.36657498642E+03 0.34818267281E+03 0.29810450884E+03
 0.22967466812E+03 0.15951361140E+03 0.10180815376E+03 0.63999994589E+02 0.45139462443E+02
 0.37158197244E+02 0.31697044933E+02 0.27966413940E+02 0.25909486851E+02 0.25265154410E+02
 0.25909841166E+02 0.27966746918E+02 0.31697038946E+02 0.37157989475E+02 0.45139556096E+02
 0.64000736783E+02 0.10180930337E+03 0.15951446699E+03 0.11798916477E+03 0.15963135751E+03
 0.19633614459E+03 0.21788418350E+03 0.21788662595E+03 0.19633928976E+03 0.15962955196E+03
 0.11798376038E+03 0.81508330430E+02 0.56486233874E+02 0.43300846757E+02 0.36692834481E+02
 0.31602494825E+02 0.27966486905E+02 0.25773713327E+02 0.24777048136E+02 0.24779771102E+02
 0.25777880342E+02 0.27966746918E+02 0.31600219693E+02 0.36692285765E+02 0.43302447684E+02
 0.56488803327E+02 0.81512737469E+02 0.62545312066E+02 0.81677974749E+02 0.10209779232E+03
 0.11783309029E+03 0.12374867089E+03 0.11783273377E+03 0.10209694009E+03 0.81677037972E+02
 0.62545022448E+02 0.48851076910E+02 0.41031271188E+02 0.35786847862E+02 0.31332458460E+02
 0.28029681190E+02 0.25909772478E+02 0.24779688794E+02 0.24431275665E+02 0.24779986513E+02
 0.25909841166E+02 0.28029384163E+02 0.31332140835E+02 0.35786559683E+02 0.41030786507E+02
 0.48850671286E+02 0.43022094036E+02 0.49037732392E+02 0.56837088319E+02 0.64467320080E+02
 0.69219736635E+02 0.69219596945E+02 0.64467464363E+02 0.56838173057E+02 0.49039541358E+02
 0.43024346241E+02 0.38632229102E+02 0.34529021270E+02 0.30951054816E+02 0.28208474172E+02
 0.26355480462E+02 0.25269338352E+02 0.24779904205E+02 0.24777505967E+02 0.25265154410E+02
 0.26354117012E+02 0.28209900354E+02 0.30951790700E+02 0.34527479055E+02 0.38629710925E+02
 0.35950742590E+02 0.38820540324E+02 0.41396623901E+02 0.43813239084E+02 0.45749303491E+02
 0.46506058580E+02 0.45749170968E+02 0.43813337982E+02 0.41397274973E+02 0.38821623285E+02
 0.35951722300E+02 0.33088711774E+02 0.30566398880E+02 0.28590569402E+02 0.27210012635E+02
 0.26355480462E+02 0.25909772478E+02 0.25773713327E+02 0.25909486851E+02 0.26355268740E+02
 0.27210195747E+02 0.28591044104E+02 0.30566671506E+02 0.33088340329E+02 0.31679281894E+02
 0.33277464658E+02 0.34899211750E+02 0.36315819361E+02 0.37341311677E+02 0.37871473143E+02
 0.37870208884E+02 0.37338451853E+02 0.36313706101E+02 0.34899671040E+02 0.33279550424E+02
 0.31680209525E+02 0.30303553644E+02 0.29268081670E+02 0.28590569402E+02 0.28209345512E+02
 0.28029465779E+02 0.27965157735E+02 0.27966413940E+02 0.28031718342E+02 0.28210604709E+02
 0.28591373311E+02 0.29269623155E+02 0.30304735208E+02 0.30266085822E+02 0.30493605593E+02
 0.30942745819E+02 0.31495291775E+02 0.32007676881E+02 0.32362796319E+02 0.32490648206E+02
 0.32365463615E+02 0.32007723938E+02 0.31492557342E+02 0.30942295937E+02 0.30495465485E+02
 0.30265245744E+02 0.30300967478E+02 0.30566398880E+02 0.30953640982E+02 0.31332458460E+02
 0.31599908659E+02 0.31697044933E+02 0.31602378547E+02 0.31332363739E+02 0.30951168890E+02
 0.30566837195E+02 0.30304280870E+02 0.31679442677E+02 0.30494975159E+02 0.29647220135E+02
 0.29141235542E+02 0.28903257067E+02 0.28829489616E+02 0.28824209533E+02 0.28826588497E+02
 0.28833094078E+02 0.28903522455E+02 0.29139313887E+02 0.29645717703E+02 0.30492879319E+02
 0.31676525173E+02 0.33088711774E+02 0.34531834284E+02 0.35787063274E+02 0.36690479298E+02
 0.37158197244E+02 0.37159936106E+02 0.36691880996E+02 0.35783900563E+02 0.34527562447E+02
 0.33088628033E+02 0.35950763125E+02 0.33279197689E+02 0.30942562651E+02 0.29139750369E+02
 0.27911175187E+02 0.27177249986E+02 0.26809930164E+02 0.26701410852E+02 0.26810252089E+02
 0.27177520895E+02 0.27911051840E+02 0.29139313887E+02 0.30942295937E+02 0.33279550424E+02
 0.35951722300E+02 0.38632229102E+02 0.41031271308E+02 0.43300847541E+02 0.45139464194E+02
 0.45862291950E+02 0.45139562412E+02 0.43300701857E+02 0.41030588915E+02 0.38631144784E+02
 0.43021971543E+02 0.38820858092E+02 0.34899101989E+02 0.31492095944E+02 0.28905430387E+02
 0.27179347504E+02 0.26180761285E+02 0.25739231426E+02 0.25742660503E+02 0.26184968561E+02
 0.27177520895E+02 0.28902543198E+02 0.31495143508E+02 0.34904334650E+02 0.38821623285E+02
 0.43020553971E+02 0.48850862234E+02 0.56489571131E+02 0.64000000363E+02 0.68689742524E+02
 0.68691888637E+02 0.64002473644E+02 0.56488437022E+02 0.48849681005E+02 0.62545335520E+02
 0.49039351807E+02 0.41396799652E+02 0.36313231247E+02 0.32007438830E+02 0.28833026501E+02
 0.26810312007E+02 0.25742728695E+02 0.25419369610E+02 0.25747755898E+02 0.26810252089E+02
 0.28827998682E+02 0.32007723938E+02 0.36318801497E+02 0.41397274853E+02 0.49034445226E+02
 0.62545022445E+02 0.81513428895E+02 0.10180816172E+03 0.11747107777E+03 0.12336755371E+03
 0.11747680823E+03 0.10180910070E+03 0.81509118821E+02 0.11798931349E+03 0.81680920951E+02
 0.56837449616E+02 0.43812442202E+02 0.37338798996E+02 0.32363700750E+02 0.28824587884E+02
 0.26705572741E+02 0.25747824091E+02 0.25746139959E+02 0.26701410852E+02 0.28820659221E+02
 0.32362877449E+02 0.37340696776E+02 0.43813337200E+02 0.56835053977E+02 0.81677250303E+02
 0.11798733446E+03 0.15951361737E+03 0.19616251007E+03 0.21769333163E+03 0.21769345264E+03
 0.19616253284E+03 0.15951384796E+03 0.22967464335E+03 0.15963033852E+03 0.10209801261E+03
 0.64468150755E+02 0.45749249414E+02 0.37870024556E+02 0.32490687338E+02 0.28824587884E+02
 0.26810312007E+02 0.26180761285E+02 0.26809930164E+02 0.28824209533E+02 0.32490648207E+02
 0.37870208884E+02 0.45749169220E+02 0.64467458597E+02 0.10209693213E+03 0.15962954596E+03
 0.22967466809E+03 0.29806417931E+03 0.34815037401E+03 0.36655278538E+03 0.34814969172E+03
 0.29806347016E+03 0.40627640320E+03 0.29809847361E+03 0.19633604664E+03 0.11783488488E+03
 0.69222019740E+02 0.46505190412E+02 0.37870024556E+02 0.32362632640E+02 0.28827931105E+02
 0.27173507081E+02 0.27177249986E+02 0.28834350783E+02 0.32365382486E+02 0.37870296330E+02
 0.46506056169E+02 0.69221636618E+02 0.11783250516E+03 0.19633677056E+03 0.29810450066E+03
 0.40628133324E+03 0.49780968058E+03 0.55043125349E+03 0.55043308226E+03 0.49781055290E+03
 0.63904395708E+03 0.49777370833E+03 0.34818182071E+03 0.21788604407E+03 0.12374840034E+03
 0.69219665175E+02 0.45749248868E+02 0.37341152199E+02 0.32007438831E+02 0.28903077184E+02
 0.27911175186E+02 0.28905610270E+02 0.32007676882E+02 0.37338958474E+02 0.45749301198E+02
 0.69222079996E+02 0.12374865374E+03 0.21788425305E+03 0.34818265656E+03 0.49777699410E+03
 0.63904475061E+03 0.74069383979E+03 0.77776261467E+03 0.74069574059E+03 0.89940324169E+03
 0.74062324686E+03 0.55035565823E+03 0.36657629728E+03 0.21788368670E+03 0.11783150137E+03
 0.64468147298E+02 0.43816887808E+02 0.36318326643E+02 0.31494558258E+02 0.29139750369E+02
 0.29139752485E+02 0.31492705609E+02 0.36313618066E+02 0.43813237688E+02 0.64468640813E+02
 0.11783328710E+03 0.21788328751E+03 0.36657496388E+03 0.55035489020E+03 0.74062065300E+03
 0.89939802738E+03 0.99009772766E+03 0.99010067783E+03 0.11421034997E+04 0.99003107776E+03
 0.77765302401E+03 0.55035565326E+03 0.34818181099E+03 0.19633603511E+03 0.10209800353E+03
 0.56837445658E+02 0.41396799452E+02 0.34899101990E+02 0.30942562651E+02 0.29647220134E+02
 0.30942745819E+02 0.34899211750E+02 0.41396623581E+02 0.56837081544E+02 0.10209777527E+03
 0.19633611984E+03 0.34818196546E+03 0.55035536954E+03 0.77765202214E+03 0.99002967647E+03
 0.11421024742E+04 0.11974571156E+04 0.13157242255E+04 0.11974171349E+04 0.99003107464E+03
 0.74062404042E+03 0.49777604714E+03 0.29810103193E+03 0.15963032243E+03 0.81677266951E+02
 0.49034253687E+02 0.38817593729E+02 0.33279197690E+02 0.30497260265E+02 0.30496191759E+02
 0.33278863904E+02 0.38820540324E+02 0.49037201026E+02 0.81677746427E+02 0.15963140548E+03
 0.29810378763E+03 0.49777592496E+03 0.74062076367E+03 0.99003233788E+03 0.11974252809E+04
 0.13157293703E+04 0.13189626751E+04 0.12585549759E+04 0.10924634243E+04 0.86011031709E+03
 0.61068758531E+03 0.38771885966E+03 0.21886377003E+03 0.11262413523E+03 0.60446124382E+02
 0.42330668788E+02 0.35500817463E+02 0.31358162939E+02 0.29995135582E+02 0.31361248935E+02
 0.35500724348E+02 0.42327418501E+02 0.60446056621E+02 0.11262735910E+03 0.21886406687E+03
 0.38771612939E+03 0.61068790002E+03 0.86011355084E+03 0.10924633515E+04 0.12585517455E+04
 0.12585548722E+04 0.12585602798E+04 0.11459310721E+04 0.94812780048E+03 0.70964261108E+03
 0.47685753343E+03 0.28522159295E+03 0.15254750751E+03 0.78368606840E+02 0.47744066575E+02
 0.38093109800E+02 0.32682683430E+02 0.29985764058E+02 0.29988506240E+02 0.32685715625E+02
 0.38090924562E+02 0.47740786463E+02 0.78368320555E+02 0.15254590754E+03 0.28521669059E+03
 0.47685641041E+03 0.70964759540E+03 0.94812903234E+03 0.11459235729E+04 0.10924633555E+04
 0.11448947624E+04 0.10924624496E+04 0.94812781857E+03 0.74582455146E+03 0.52835704814E+03
 0.33418791623E+03 0.18814889489E+03 0.97813409261E+02 0.54890768765E+02 0.40417204264E+02
 0.34058066507E+02 0.30204581154E+02 0.28948013928E+02 0.30204458746E+02 0.34058018126E+02
 0.40417373496E+02 0.54891036186E+02 0.97813484337E+02 0.18814864908E+03 0.33418761035E+03
 0.52835717159E+03 0.74582536812E+03 0.94812903556E+03 0.86011043481E+03 0.94573059661E+03
 0.94573024759E+03 0.86010963844E+03 0.70964623380E+03 0.52835681990E+03 0.35225009541E+03
 0.20920121396E+03 0.11296651481E+03 0.62006785260E+02 0.42553114478E+02 0.35273859793E+02
 0.30550867535E+02 0.28258000890E+02 0.28257570496E+02 0.30549833434E+02 0.35273135755E+02
 0.42553920276E+02 0.62009369012E+02 0.11296956904E+03 0.20920318728E+03 0.35225078899E+03
 0.52835717662E+03 0.70964692100E+03 0.61068791667E+03 0.70644696448E+03 0.74125774214E+03
 0.70644850228E+03 0.61068848785E+03 0.47685729012E+03 0.33418858997E+03 0.20920396463E+03
 0.11869852668E+03 0.66490014874E+02 0.44273716386E+02 0.36157592271E+02 0.30899360386E+02
 0.27860984467E+02 0.26892350152E+02 0.27862139456E+02 0.30899266489E+02 0.36156382130E+02
 0.44273886545E+02 0.66491318554E+02 0.11869816664E+03 0.20920191278E+03 0.33418762008E+03
 0.47685770350E+03 0.38771927689E+03 0.47386210385E+03 0.52314458608E+03 0.52314284768E+03
 0.47385950432E+03 0.38771966007E+03 0.28522233242E+03 0.18815180227E+03 0.11296992073E+03
 0.66491686121E+02 0.44951074414E+02 0.36615353207E+02 0.31149076546E+02 0.27667885094E+02
 0.26042502472E+02 0.26041804317E+02 0.27666965180E+02 0.31149247633E+02 0.36615708445E+02
 0.44950293426E+02 0.66490041209E+02 0.11296777224E+03 0.18814866046E+03 0.28521919327E+03
 0.21886408864E+03 0.28318706992E+03 0.33001557106E+03 0.34716222361E+03 0.33001611742E+03
 0.28318757645E+03 0.21886392023E+03 0.15254497053E+03 0.97812261112E+02 0.62008526253E+02
 0.44273701417E+02 0.36615921004E+02 0.31240748420E+02 0.27596119576E+02 0.25596387453E+02
 0.24971451873E+02 0.25596562859E+02 0.27596215991E+02 0.31240592176E+02 0.36615708445E+02
 0.44273887016E+02 0.62009372264E+02 0.97813493100E+02 0.15254592321E+03 0.11262424920E+03
 0.15161919290E+03 0.18583728282E+03 0.20585116636E+03 0.20585309426E+03 0.18583996302E+03
 0.15161843461E+03 0.11262090664E+03 0.78363515761E+02 0.54888762624E+02 0.42553344219E+02
 0.36158131180E+02 0.31152098326E+02 0.27595998927E+02 0.25459755820E+02 0.24491149759E+02
 0.24493689723E+02 0.25463651849E+02 0.27596215991E+02 0.31149890454E+02 0.36157660768E+02
 0.42555080035E+02 0.54891039830E+02 0.78366487585E+02 0.60446063540E+02 0.78198604884E+02
 0.97111938040E+02 0.11164600704E+03 0.11709923674E+03 0.11164539027E+03 0.97111458527E+02
 0.78198469767E+02 0.60445859801E+02 0.47740964105E+02 0.40417877556E+02 0.35273746990E+02
 0.30899717154E+02 0.27667108770E+02 0.25596462263E+02 0.24493551393E+02 0.24153244154E+02
 0.24493371850E+02 0.25596562859E+02 0.27667283052E+02 0.30899266489E+02 0.35272817883E+02
 0.40417373622E+02 0.47741106736E+02 0.42330544836E+02 0.47891261763E+02 0.55036369908E+02
 0.62011897932E+02 0.66350949888E+02 0.66351256476E+02 0.62012949221E+02 0.55037799071E+02
 0.47892105676E+02 0.42330955012E+02 0.38094068487E+02 0.34059365129E+02 0.30548219030E+02
 0.27859622077E+02 0.26042423043E+02 0.24975284689E+02 0.24493233521E+02 0.24490966566E+02
 0.24971451873E+02 0.26041344690E+02 0.27860860818E+02 0.30548490982E+02 0.34058018126E+02
 0.38092950040E+02 0.35500724348E+02 0.38321998950E+02 0.40822686605E+02 0.43066586379E+02
 0.44829622450E+02 0.45514670519E+02 0.44829485638E+02 0.43066638590E+02 0.40823225663E+02
 0.38322940717E+02 0.35501606445E+02 0.32686067742E+02 0.30204191430E+02 0.28257019587E+02
 0.26891951416E+02 0.26042423043E+02 0.25596462264E+02 0.25459755820E+02 0.25596387453E+02
 0.26042502472E+02 0.26892350152E+02 0.28257570496E+02 0.30204458746E+02 0.32685715625E+02
 0.31358123178E+02 0.32943783425E+02 0.34546165843E+02 0.35940072668E+02 0.36945091245E+02
 0.37463086918E+02 0.37461787917E+02 0.36941919222E+02 0.35937290082E+02 0.34546254856E+02
 0.32946570072E+02 0.31360606676E+02 0.29987771468E+02 0.28946775219E+02 0.28257019587E+02
 0.27860792713E+02 0.27667426642E+02 0.27595011485E+02 0.27596119576E+02 0.27669515357E+02
 0.27862263106E+02 0.28258172707E+02 0.28948013928E+02 0.29987651399E+02 0.29995135582E+02
 0.30259025041E+02 0.30731720269E+02 0.31294564994E+02 0.31807518253E+02 0.32159372891E+02
 0.32285415451E+02 0.32161892451E+02 0.31807232801E+02 0.31291534006E+02 0.30731310289E+02
 0.30261152192E+02 0.29994407349E+02 0.29985069753E+02 0.30204191430E+02 0.30550920745E+02
 0.30899717154E+02 0.31149396612E+02 0.31240748420E+02 0.31151778260E+02 0.30899360386E+02
 0.30548165820E+02 0.30204581154E+02 0.29988465773E+02 0.31361288696E+02 0.30261213705E+02
 0.29486278320E+02 0.29034124649E+02 0.28829672533E+02 0.28772599205E+02 0.28773039210E+02
 0.28775034821E+02 0.28775653142E+02 0.28830161676E+02 0.29033121887E+02 0.29485299229E+02
 0.30258450477E+02 0.31356883837E+02 0.32686067742E+02 0.34061917332E+02 0.35273429117E+02
 0.36155395784E+02 0.36615921004E+02 0.36617445783E+02 0.36156313632E+02 0.35269965138E+02
 0.34058066507E+02 0.32687261111E+02 0.35500817463E+02 0.32946313613E+02 0.30731515406E+02
 0.29033340476E+02 0.27880337077E+02 0.27192263627E+02 0.26847485778E+02 0.26745506697E+02
 0.26847964020E+02 0.27192803380E+02 0.27880509821E+02 0.29033121887E+02 0.30731310289E+02
 0.32946570072E+02 0.35501606445E+02 0.38094068487E+02 0.40417877632E+02 0.42553344855E+02
 0.44273702919E+02 0.44951076516E+02 0.44273718360E+02 0.42553115614E+02 0.40417204465E+02
 0.38093109800E+02 0.42327543608E+02 0.38321391482E+02 0.34546027524E+02 0.31292178244E+02
 0.28832528487E+02 0.27194106290E+02 0.26246506543E+02 0.25827446571E+02 0.25830824150E+02
 0.26250903736E+02 0.27192803380E+02 0.28829612722E+02 0.31294235721E+02 0.34550526648E+02
 0.38322940717E+02 0.42327853855E+02 0.47741282617E+02 0.54892049538E+02 0.62008531622E+02
 0.66489052571E+02 0.66491302785E+02 0.62011237489E+02 0.54890774974E+02 0.47738942980E+02
 0.60446131266E+02 0.47891874400E+02 0.40822852535E+02 0.35937066933E+02 0.31807208267E+02
 0.28775704011E+02 0.26847980912E+02 0.25830807371E+02 0.25522210741E+02 0.25835044576E+02
 0.26847964020E+02 0.28771432717E+02 0.31807232801E+02 0.35941510508E+02 0.40823225589E+02
 0.47887884603E+02 0.60445859766E+02 0.78367739006E+02 0.97812268621E+02 0.11296571293E+03
 0.11869854321E+03 0.11297075314E+03 0.97813425533E+02 0.78364398546E+02 0.11262727667E+03
 0.78202257339E+02 0.55036765726E+02 0.43065306514E+02 0.36941732876E+02 0.32160114064E+02
 0.28773582747E+02 0.26749689348E+02 0.25835027797E+02 0.25833267206E+02 0.26745506697E+02
 0.28769763139E+02 0.32159190736E+02 0.36943468065E+02 0.43066637967E+02 0.55035077040E+02
 0.78198148955E+02 0.11262344276E+03 0.15254497605E+03 0.18814863575E+03 0.20920270504E+03
 0.20920261419E+03 0.18814891885E+03 0.15254683471E+03 0.21886379140E+03 0.15161900535E+03
 0.97112246156E+02 0.62013371631E+02 0.44829410599E+02 0.37461602106E+02 0.32285577363E+02
 0.28773582747E+02 0.26847980912E+02 0.26246506543E+02 0.26847485777E+02 0.28773039210E+02
 0.32285415451E+02 0.37461787917E+02 0.44829484176E+02 0.62012943950E+02 0.97111450974E+02
 0.15161842866E+03 0.21886391984E+03 0.28522233991E+03 0.33418860552E+03 0.35225011730E+03
 0.33418794151E+03 0.28522161802E+03 0.38771575506E+03 0.28318074389E+03 0.18583730642E+03
 0.11164846748E+03 0.66353892236E+02 0.45513494002E+02 0.37461602107E+02 0.32159626454E+02
 0.28771483585E+02 0.27188773264E+02 0.27192263627E+02 0.28777383276E+02 0.32162074606E+02
 0.37462025685E+02 0.45514668480E+02 0.66353480578E+02 0.11164569568E+03 0.18583790152E+03
 0.28318756814E+03 0.38772235098E+03 0.47685857669E+03 0.52835594577E+03 0.52835706847E+03
 0.47685776221E+03 0.61068760134E+03 0.47385863364E+03 0.33001551205E+03 0.20585280033E+03
 0.11709912595E+03 0.66350843041E+02 0.44829410143E+02 0.36944780834E+02 0.31807208268E+02
 0.28829480530E+02 0.27880337076E+02 0.28832720491E+02 0.31807518253E+02 0.36942043288E+02
 0.44829620532E+02 0.66353988842E+02 0.11709922059E+03 0.20585002736E+03 0.33001610138E+03
 0.47386254327E+03 0.61068848723E+03 0.70964319268E+03 0.74582456378E+03 0.70964567451E+03
 0.86011345210E+03 0.70645053120E+03 0.52314491183E+03 0.34716357715E+03 0.20584974845E+03
 0.11164404784E+03 0.62013368498E+02 0.43070208252E+02 0.35941287359E+02 0.31293096654E+02
 0.29033340476E+02 0.29033755192E+02 0.31291863280E+02 0.35936719286E+02 0.43066585269E+02
 0.62014072276E+02 0.11164567168E+03 0.20584877756E+03 0.34716220161E+03 0.52314455482E+03
 0.70644721578E+03 0.86010611275E+03 0.94812782341E+03 0.94813201676E+03 0.10924634281E+04
 0.94573158942E+03 0.74125872020E+03 0.52314490709E+03 0.33001550283E+03 0.18583729555E+03
 0.97112237705E+02 0.55036762176E+02 0.40822852412E+02 0.34546027525E+02 0.30731515406E+02
 0.29486278320E+02 0.30731720269E+02 0.34546165843E+02 0.40822686408E+02 0.55036363806E+02
 0.97111922036E+02 0.18583725913E+03 0.33001554580E+03 0.52314456536E+03 0.74125772914E+03
 0.94573024205E+03 0.10924624493E+04 0.11459310748E+04 0.12585518510E+04 0.11448874620E+04
 0.94573158640E+03 0.70645042917E+03 0.47386166782E+03 0.28318523546E+03 0.15161899014E+03
 0.78197252125E+02 0.47887651606E+02 0.38320566939E+02 0.32946313613E+02 0.30261489294E+02
 0.30261726756E+02 0.32947230675E+02 0.38321998950E+02 0.47888982134E+02 0.78198910693E+02
 0.15162163155E+03 0.28318704469E+03 0.47386026407E+03 0.70644822710E+03 0.94573420710E+03
 0.11448947594E+04 0.12585559776E+04 0.11567560735E+04 0.11037257384E+04 0.95775314527E+03
 0.75320967287E+03 0.53342325171E+03 0.33726419736E+03 0.18976549066E+03 0.98523615963E+02
 0.55158949789E+02 0.40562035036E+02 0.34211982910E+02 0.30365527460E+02 0.29114474658E+02
 0.30370709772E+02 0.34211885351E+02 0.40556663279E+02 0.55158850800E+02 0.98528980365E+02
 0.18976597805E+03 0.33725965227E+03 0.53342378581E+03 0.75321506588E+03 0.95775302168E+03
 0.11037203521E+04 0.11037255603E+04 0.11037299855E+04 0.10051575952E+04 0.83162076521E+03
 0.62178655071E+03 0.41665720897E+03 0.24822983684E+03 0.13285649901E+03 0.69892884101E+02
 0.44929122278E+02 0.36607846734E+02 0.31529240319E+02 0.29039378343E+02 0.29042130703E+02
 0.31532229919E+02 0.36605503631E+02 0.44925729228E+02 0.69892753662E+02 0.13285519421E+03
 0.24822492702E+03 0.41665575290E+03 0.62179168244E+03 0.83162337431E+03 0.10051521140E+04
 0.95775302584E+03 0.10034671274E+04 0.95775236250E+03 0.83162251204E+03 0.65417751663E+03
 0.46277626197E+03 0.29179416602E+03 0.16396985194E+03 0.86280527746E+02 0.50631235831E+02
 0.38778451846E+02 0.32763546462E+02 0.29182463902E+02 0.28025784113E+02 0.29182375853E+02
 0.32763510486E+02 0.38778561135E+02 0.50631382968E+02 0.86280483603E+02 0.16396952636E+03
 0.29179378051E+03 0.46277621782E+03 0.65417803596E+03 0.83162337753E+03 0.75320986839E+03
 0.82772974244E+03 0.82773107722E+03 0.75321183976E+03 0.62179053436E+03 0.46277581538E+03
 0.30793985476E+03 0.18253881712E+03 0.99259612840E+02 0.56410143554E+02 0.40588068931E+02
 0.33875094533E+02 0.29455347173E+02 0.27339525226E+02 0.27339907436E+02 0.29455245865E+02
 0.33873865552E+02 0.40588265866E+02 0.56413342360E+02 0.99263070064E+02 0.18253976054E+03
 0.30793958988E+03 0.46277622266E+03 0.62179031254E+03 0.53342380185E+03 0.61664069253E+03
 0.64681431923E+03 0.61664240883E+03 0.53342414556E+03 0.41665644577E+03 0.29179466918E+03
 0.18254051495E+03 0.10420778879E+03 0.60102098913E+02 0.41968598954E+02 0.34696151812E+02
 0.29744304860E+02 0.26931406226E+02 0.26041953189E+02 0.26932946916E+02 0.29744310376E+02
 0.34694739392E+02 0.41968897785E+02 0.60103819156E+02 0.10420745495E+03 0.18253814902E+03
 0.29179378962E+03 0.41665738196E+03 0.33726487974E+03 0.41188958538E+03 0.45445582522E+03
 0.45445375820E+03 0.41188619893E+03 0.33726420369E+03 0.24823040045E+03 0.16397122555E+03
 0.99262143246E+02 0.60103985182E+02 0.42506005483E+02 0.35126684074E+02 0.29956145534E+02
 0.26721762703E+02 0.25225939913E+02 0.25224940715E+02 0.26720468107E+02 0.29956463829E+02
 0.35127290687E+02 0.42505033276E+02 0.60102204891E+02 0.99260730289E+02 0.16396953662E+03
 0.24822866592E+03 0.18976599768E+03 0.24504319419E+03 0.28522672121E+03 0.29991825500E+03
 0.28522701713E+03 0.24504338279E+03 0.18976565239E+03 0.13285428526E+03 0.86279391219E+02
 0.56412585268E+02 0.41968708890E+02 0.35127495181E+02 0.30035047271E+02 0.26638165656E+02
 0.24792102865E+02 0.24217652584E+02 0.24792125700E+02 0.26638079168E+02 0.30034800696E+02
 0.35127290687E+02 0.41968898049E+02 0.56413344889E+02 0.86280491042E+02 0.13285520805E+03
 0.98523786768E+02 0.13143001522E+03 0.16039477437E+03 0.17734004651E+03 0.17734112021E+03
 0.16039623177E+03 0.13142964435E+03 0.98522294727E+02 0.69888751405E+02 0.50630049593E+02
 0.40588384740E+02 0.34696901051E+02 0.29959346373E+02 0.26637799603E+02 0.24657902154E+02
 0.23763834389E+02 0.23766048469E+02 0.24661350096E+02 0.26638079168E+02 0.29957406371E+02
 0.34696354687E+02 0.40589667882E+02 0.50631385642E+02 0.69889981126E+02 0.55158856058E+02
 0.69626757247E+02 0.85203492406E+02 0.97234282560E+02 0.10175589655E+03 0.97233481194E+02
 0.85203475472E+02 0.69627514199E+02 0.55158846673E+02 0.44925920166E+02 0.38779005305E+02
 0.33874434312E+02 0.29744754891E+02 0.26720611211E+02 0.24792007896E+02 0.23765889295E+02
 0.23448884168E+02 0.23765230788E+02 0.24792125700E+02 0.26721285789E+02 0.29744310376E+02
 0.33873047871E+02 0.38778561141E+02 0.44926548432E+02 0.40561870603E+02 0.45121551633E+02
 0.50804786132E+02 0.56366170490E+02 0.59840532634E+02 0.59841328228E+02 0.56368345306E+02
 0.50807080683E+02 0.45122123788E+02 0.40560816242E+02 0.36608478066E+02 0.32763877460E+02
 0.29452665666E+02 0.26930213666E+02 0.25225676659E+02 0.24221046350E+02 0.23765071614E+02
 0.23763029253E+02 0.24217652583E+02 0.25224803308E+02 0.26931331621E+02 0.29453038932E+02
 0.32763510486E+02 0.36609088914E+02 0.34211885351E+02 0.36920775260E+02 0.39320652021E+02
 0.41263344041E+02 0.42691215560E+02 0.43235078307E+02 0.42691136598E+02 0.41263377252E+02
 0.39320974833E+02 0.36921342103E+02 0.34212420248E+02 0.31532434116E+02 0.29182160511E+02
 0.27339443581E+02 0.26041509756E+02 0.25225676659E+02 0.24792007896E+02 0.24657902154E+02
 0.24792102865E+02 0.25225939913E+02 0.26041953189E+02 0.27339907436E+02 0.29182375853E+02
 0.31532229919E+02 0.30365502630E+02 0.31894700287E+02 0.33440539198E+02 0.34788218782E+02
 0.35762993548E+02 0.36267005350E+02 0.36265851524E+02 0.35759764990E+02 0.34784591623E+02
 0.33439532561E+02 0.31897340814E+02 0.30369140846E+02 0.29041675316E+02 0.28025537924E+02
 0.27339443581E+02 0.26931655250E+02 0.26721428892E+02 0.26637163154E+02 0.26638165656E+02
 0.26723341693E+02 0.26933021521E+02 0.27340290575E+02 0.28025784113E+02 0.29039987005E+02
 0.29114474658E+02 0.29424790769E+02 0.29921954709E+02 0.30490833083E+02 0.30999084199E+02
 0.31343996847E+02 0.31466973176E+02 0.31346355296E+02 0.30998473098E+02 0.30487553961E+02
 0.29921677344E+02 0.29427332515E+02 0.29114052256E+02 0.29038870488E+02 0.29182160511E+02
 0.29455470493E+02 0.29744754891E+02 0.29956541545E+02 0.30035047271E+02 0.29958950362E+02
 0.29744304860E+02 0.29452542345E+02 0.29182463902E+02 0.29042183171E+02 0.30370734602E+02
 0.29427040214E+02 0.28782700341E+02 0.28424473580E+02 0.28276967331E+02 0.28247560517E+02
 0.28257429109E+02 0.28258986098E+02 0.28249927303E+02 0.28277599978E+02 0.28424622520E+02
 0.28782944903E+02 0.29424527687E+02 0.30365384527E+02 0.31532434116E+02 0.32766192195E+02
 0.33873616631E+02 0.34693781180E+02 0.35127495181E+02 0.35128861403E+02 0.34694536517E+02
 0.33870572865E+02 0.32763546462E+02 0.31535140337E+02 0.34211982910E+02 0.31897238815E+02
 0.29921755751E+02 0.28424535533E+02 0.27414986679E+02 0.26813604913E+02 0.26511494481E+02
 0.26421854512E+02 0.26512041724E+02 0.26814329467E+02 0.27415461965E+02 0.28424622520E+02
 0.29921677344E+02 0.31897340814E+02 0.34212420248E+02 0.36608478066E+02 0.38779005308E+02
 0.40588385018E+02 0.41968709730E+02 0.42506006723E+02 0.41968600058E+02 0.40588069429E+02
 0.38778451855E+02 0.36607846734E+02 0.40556828074E+02 0.36919920377E+02 0.33440394950E+02
 0.30489441437E+02 0.28280184270E+02 0.26815054525E+02 0.25968343656E+02 0.25593605050E+02
 0.25596759877E+02 0.25972685080E+02 0.26814329467E+02 0.28277452336E+02 0.30490358789E+02
 0.33443436523E+02 0.36921342103E+02 0.40558353865E+02 0.44926738251E+02 0.50633318978E+02
 0.56412589425E+02 0.60101666538E+02 0.60103721565E+02 0.56414819551E+02 0.50631240378E+02
 0.44923076544E+02 0.55158955007E+02 0.45121851990E+02 0.39320796901E+02 0.34784741421E+02
 0.30998799810E+02 0.28250131228E+02 0.26512007271E+02 0.25596640588E+02 0.25318771906E+02
 0.25600141947E+02 0.26512041724E+02 0.28246545234E+02 0.30998473098E+02 0.34787973692E+02
 0.39320974829E+02 0.45118741309E+02 0.55158846632E+02 0.69892135737E+02 0.86279397516E+02
 0.99258772010E+02 0.10420780308E+03 0.99263010307E+02 0.86280541482E+02 0.69889511906E+02
 0.98528836420E+02 0.69630376572E+02 0.50805178741E+02 0.41261485488E+02 0.35759254884E+02
 0.31344790693E+02 0.28258018936E+02 0.26425751437E+02 0.25600022657E+02 0.25598362848E+02
 0.26421854512E+02 0.28254375943E+02 0.31343550468E+02 0.35760618826E+02 0.41263376984E+02
 0.50804783414E+02 0.69626694106E+02 0.98523784782E+02 0.13285428999E+03 0.16396880386E+03
 0.18253891676E+03 0.18253892649E+03 0.16396987333E+03 0.13285780743E+03 0.18976550973E+03
 0.13142995064E+03 0.85203857931E+02 0.56368409255E+02 0.42690873941E+02 0.36265642889E+02
 0.31467187306E+02 0.28258018936E+02 0.26512007271E+02 0.25968343655E+02 0.26511494480E+02
 0.28257429109E+02 0.31466973176E+02 0.36265851524E+02 0.42691135797E+02 0.56368341292E+02
 0.85203469142E+02 0.13142963904E+03 0.18976565183E+03 0.24823040706E+03 0.29179468336E+03
 0.30793987497E+03 0.29179418932E+03 0.24822985967E+03 0.33725900969E+03 0.24503662833E+03
 0.16039491369E+03 0.97237513321E+02 0.59843744018E+02 0.43233403249E+02 0.36265642889E+02
 0.31344727459E+02 0.28246749160E+02 0.26810359960E+02 0.26813604912E+02 0.28252107438E+02