    7    7  100    1
  0.1413867E+02  0.2496087E-09  0.2496087E-09  0.1834242E-08  0.2000000E-15
  1.000000000000000E-004
  CAR 
 CO adsorption on Ni(111)                
   60   12   36
 
  0.3742002E-15  0.3742002E-15  0.1262379E-14  0.1234568E-01
   1      -23.059488
   2      -10.165721
   3       -6.774404
   4       -6.361774
   5       -5.480284
   6       -4.173789
   7       -3.225639
   8       -2.760891
   9       -2.138077
  10       -2.136359
  11       -0.552770
  12       -0.282217
  13       -0.207860
  14       -0.207855
  15       -0.157924
  16       -0.157901
  17       -0.146215
  18       -0.060710
  19       -0.060702
  20       -0.001955
  21       -0.001947
  22        0.182130
  23        0.182137
  24        0.329406
  25        0.427567
  26        0.427625
  27        0.952694
  28        0.952697
  29        1.071776
  30        1.071778
  31        1.396112
  32        1.396115
  33        1.650995
  34        1.650996
  35        1.895358
  36        6.592148
 
  0.1111111E+00  0.3608225E-15  0.1262379E-14  0.7407407E-01
   1      -22.917386
   2       -9.915211
   3       -6.479825
   4       -6.102769
   5       -5.147449
   6       -3.856640
   7       -2.941199
   8       -2.710484
   9       -2.451243
  10       -2.273354
  11       -0.718039
  12       -0.488573
  13       -0.421079
  14       -0.322687
  15       -0.225138
  16       -0.165641
  17       -0.075625
  18       -0.033360
  19       -0.006548
  20        0.069430
  21        0.102836
  22        0.135154
  23        0.145746
  24        0.327620
  25        0.409690
  26        0.439013
  27        0.821156
  28        0.873116
  29        0.940516
  30        1.093684
  31        1.275461
  32        1.401499
  33        1.657807
  34        1.983475
  35        3.127222
  36        6.798996
 
  0.2222222E+00  0.3608225E-15  0.1262379E-14  0.7407407E-01
   1      -22.538712
   2       -9.218421
   3       -6.185554
   4       -5.081629
   5       -4.314679
   6       -3.769937
   7       -2.962746
   8       -2.612596
   9       -2.250316
  10       -1.807857
  11       -1.175854
  12       -0.946208
  13       -0.723757
  14       -0.614026
  15       -0.554153
  16       -0.341541
  17       -0.139447
  18       -0.045853
  19       -0.039599
  20        0.141830
  21        0.267639
  22        0.323231
  23        0.409316
  24        0.529838
  25        0.639427
  26        0.653308
  27        0.759078
  28        0.931581
  29        0.997654
  30        1.142911
  31        1.406090
  32        1.671511
  33        1.718467
  34        2.980803
  35        4.765219
  36        5.375703
 
  0.3333333E+00  0.3330669E-15  0.1262379E-14  0.7407407E-01
   1      -22.062330
   2       -8.280142
   3       -6.532414
   4       -4.644105
   5       -3.494435
   6       -2.969118
   7       -2.938785
   8       -2.356598
   9       -1.942961
  10       -1.678960
  11       -1.537737
  12       -1.323746
  13       -1.005399
  14       -0.670586
  15       -0.433942
  16       -0.317269
  17       -0.163209
  18       -0.062048
  19        0.073165
  20        0.196745
  21        0.429668
  22        0.640060
  23        0.689222
  24        0.995225
  25        1.128042
  26        1.218712
  27        1.246848
  28        1.323980
  29        1.352830
  30        1.406872
  31        1.486748
  32        1.688931
  33        2.280871
  34        3.643730
  35        4.244340
  36        6.469271
 
  0.4444444E+00  0.3608225E-15  0.1262379E-14  0.7407407E-01
   1      -21.720224
   2       -7.703152
   3       -6.922959
   4       -4.596015
   5       -3.196664
   6       -2.603652
   7       -2.446133
   8       -2.251230
   9       -2.035510
  10       -1.846247
  11       -1.735353
  12       -1.638371
  13       -1.287492
  14       -0.685374
  15       -0.263796
  16       -0.242533
  17       -0.099827
  18        0.110099
  19        0.201128
  20        0.444878
  21        0.630379
  22        1.157556
  23        1.204413
  24        1.461792
  25        1.465217
  26        1.580940
  27        1.630093
  28        1.677840
  29        1.743606
  30        1.832818
  31        1.904785
  32        2.426246
  33        3.051531
  34        3.768937
  35        5.122171
  36        6.062657
 
  0.1111111E+00  0.1111111E+00  0.1262379E-14  0.7407407E-01
   1      -22.657054
   2       -9.440534
   3       -6.214951
   4       -5.424095
   5       -4.516993
   6       -3.564757
   7       -3.151052
   8       -2.605748
   9       -2.415420
  10       -1.959622
  11       -0.990001
  12       -0.823215
  13       -0.692000
  14       -0.547805
  15       -0.467288
  16       -0.435228
  17       -0.161998
  18       -0.084468
  19       -0.023504
  20        0.118665
  21        0.224212
  22        0.307125
  23        0.432621
  24        0.453635
  25        0.573682
  26        0.641766
  27        0.661936
  28        0.782061
  29        1.047524
  30        1.212748
  31        1.238217
  32        1.570247
  33        1.714858
  34        2.713225
  35        4.316389
  36        5.954778
 
  0.2222222E+00  0.1111111E+00  0.1262379E-14  0.1481481E+00
   1      -22.225675
   2       -8.607636
   3       -6.258466
   4       -4.480504
   5       -3.967548
   6       -3.240874
   7       -3.141292
   8       -2.394411
   9       -1.836614
  10       -1.512940
  11       -1.318835
  12       -1.084872
  13       -0.892312
  14       -0.833493
  15       -0.720235
  16       -0.522211
  17       -0.257282
  18       -0.188218
  19       -0.145104
  20       -0.017486
  21        0.209487
  22        0.419723
  23        0.646724
  24        0.712565
  25        0.828553
  26        1.023603
  27        1.134583
  28        1.226070
  29        1.366813
  30        1.424389
  31        1.521028
  32        1.578207
  33        2.227095
  34        3.795145
  35        4.467523
  36        5.946724
 
  0.3333333E+00  0.1111111E+00  0.1262379E-14  0.1481481E+00
   1      -21.807814
   2       -7.752198
   3       -6.721492
   4       -4.591530
   5       -3.559962
   6       -2.673792
   7       -2.419508
   8       -2.133751
   9       -1.814558
  10       -1.696188
  11       -1.526324
  12       -1.344239
  13       -1.122920
  14       -0.750812
  15       -0.471118
  16       -0.399951
  17       -0.226249
  18       -0.164703
  19        0.012175
  20        0.245725
  21        0.383586
  22        0.634245
  23        0.756604
  24        1.086938
  25        1.208903
  26        1.323241
  27        1.439589
  28        1.550309
  29        1.666347
  30        1.732479
  31        2.180262
  32        2.468312
  33        2.954020
  34        3.695111
  35        5.280110
  36        5.975215
 
  0.4444444E+00  0.1111111E+00  0.1262379E-14  0.7407407E-01
   1      -21.630977
   2       -7.507850
   3       -6.820950
   4       -4.583437
   5       -3.686299
   6       -2.394746
   7       -2.225027
   8       -2.061278
   9       -1.888997
  10       -1.679755
  11       -1.629301
  12       -1.571435
  13       -1.249215
  14       -0.741384
  15       -0.478122
  16       -0.313645
  17       -0.175966
  18        0.020063
  19        0.175815
  20        0.208649
  21        0.691632
  22        0.722930
  23        1.067699
  24        1.219155
  25        1.478028
  26        1.511123
  27        1.607296
  28        1.621832
  29        1.740099
  30        1.918689
  31        2.026372
  32        3.576901
  33        4.315053
  34        4.865414
  35        5.231439
  36        5.720910
 
  0.2222222E+00  0.2222222E+00  0.1262379E-14  0.7407407E-01
   1      -21.843559
   2       -7.796495
   3       -6.451469
   4       -4.406031
   5       -4.134347
   6       -2.678946
   7       -2.315405
   8       -1.907947
   9       -1.630475
  10       -1.367482
  11       -1.255796
  12       -1.124970
  13       -1.032217
  14       -0.931800
  15       -0.750079
  16       -0.575277
  17       -0.489346
  18       -0.356877
  19       -0.308312
  20       -0.132838
  21        0.256053
  22        0.426366
  23        0.601067
  24        0.866712
  25        0.936235
  26        1.118128
  27        1.452535
  28        1.578176
  29        1.658703
  30        1.742647
  31        2.372714
  32        2.578397
  33        3.295343
  34        3.909640
  35        5.212676
  36        5.369244
 
  0.3333333E+00  0.2222222E+00  0.1262379E-14  0.1481481E+00
   1      -21.577878
   2       -7.117817
   3       -6.573260
   4       -4.970494
   5       -4.248512
   6       -2.030991
   7       -1.832646
   8       -1.723502
   9       -1.511672
  10       -1.465435
  11       -1.277602
  12       -1.184735
  13       -1.012751
  14       -0.888913
  15       -0.836560
  16       -0.621823
  17       -0.588036
  18       -0.340443
  19       -0.105013
  20        0.155565
  21        0.295481
  22        0.409816
  23        0.679005
  24        0.940526
  25        1.127963
  26        1.282083
  27        1.520307
  28        1.610431
  29        1.726525
  30        1.883001
  31        2.581030
  32        4.187415
  33        4.429644
  34        4.760207
  35        5.746458
  36        7.007717
 
  0.3333333E+00  0.3333333E+00  0.1262379E-14  0.2469136E-01
   1      -21.485389
   2       -6.471924
   3       -6.164049
   4       -6.162875
   5       -4.231576
   6       -1.630454
   7       -1.556324
   8       -1.384825
   9       -1.341757
  10       -1.295489
  11       -1.286126
  12       -1.191295
  13       -1.080473
  14       -0.963867
  15       -0.920855
  16       -0.697680
  17       -0.574900
  18       -0.476753
  19       -0.359296
  20        0.031114
  21        0.147538
  22        0.541850
  23        0.783626
  24        0.809580
  25        0.975140
  26        1.404926
  27        1.519525
  28        1.539598
  29        1.556081
  30        1.907947
  31        3.137752
  32        3.169985
  33        6.760383
  34        6.850007
  35        7.081535
  36        7.319244
