       N       E                     dE             d eps       ncg     rms          rms(c)
DAV:   1     0.466016575264E+03    0.46602E+03   -0.24537E+04   864   0.179E+03
DAV:   2     0.206595600973E+02   -0.44536E+03   -0.42966E+03   868   0.398E+02
DAV:   3    -0.420732787947E+02   -0.62733E+02   -0.55563E+02  1184   0.163E+02
DAV:   4    -0.471824083259E+02   -0.51091E+01   -0.49871E+01   996   0.438E+01
DAV:   5    -0.473941591794E+02   -0.21175E+00   -0.21088E+00  1264   0.796E+00    0.217E+01
RMM:   6    -0.535507150977E+02   -0.61566E+01   -0.10078E+02   883   0.958E+01    0.265E+01
RMM:   7    -0.509120629614E+02    0.26387E+01   -0.27261E+01   876   0.480E+01    0.351E+01
RMM:   8    -0.443948245012E+02    0.65172E+01   -0.53179E+00   902   0.188E+01    0.222E+01
RMM:   9    -0.439303836172E+02    0.46444E+00   -0.33272E+00   885   0.139E+01    0.207E+01
RMM:  10    -0.439308749316E+02   -0.49131E-03   -0.31323E+00   881   0.146E+01    0.222E+01
RMM:  11    -0.419793976573E+02    0.19515E+01   -0.10173E+00   889   0.830E+00    0.118E+01
RMM:  12    -0.412832299033E+02    0.69617E+00   -0.67379E-01   894   0.695E+00    0.995E+00
RMM:  13    -0.409232728030E+02    0.35996E+00   -0.32079E-01   912   0.320E+00    0.361E+00
RMM:  14    -0.408611416878E+02    0.62131E-01   -0.65684E-02   887   0.211E+00    0.235E+00
RMM:  15    -0.408478536361E+02    0.13288E-01   -0.38562E-02   908   0.148E+00    0.199E+00
RMM:  16    -0.408332663851E+02    0.14587E-01   -0.10122E-02   876   0.859E-01    0.611E-01
RMM:  17    -0.408316231209E+02    0.16433E-02   -0.18491E-03   908   0.274E-01    0.393E-01
RMM:  18    -0.408308939074E+02    0.72921E-03   -0.47853E-04   622   0.153E-01    0.232E-01
RMM:  19    -0.408308491702E+02    0.44737E-04   -0.65359E-04   694   0.153E-01
   1 F= -.40830849E+02 E0= -.40826324E+02  d E =-.408308E+02
       N       E                     dE             d eps       ncg     rms          rms(c)
DAV:   1    -0.408185215428E+02    0.12372E-01   -0.11646E+00   888   0.485E+00    0.323E-01
RMM:   2    -0.408238343947E+02   -0.53129E-02   -0.38264E-02  1002   0.120E+00    0.114E+00
RMM:   3    -0.408234582224E+02    0.37617E-03   -0.52662E-03   878   0.613E-01    0.124E+00
RMM:   4    -0.408234538258E+02    0.43966E-05   -0.26223E-03   846   0.404E-01    0.112E+00
RMM:   5    -0.408221192247E+02    0.13346E-02   -0.28789E-03   864   0.438E-01    0.807E-01
RMM:   6    -0.408194288803E+02    0.26903E-02   -0.26251E-03   864   0.446E-01    0.426E-01
RMM:   7    -0.408207581422E+02   -0.13293E-02   -0.27145E-03   864   0.431E-01    0.721E-01
RMM:   8    -0.408186958087E+02    0.20623E-02   -0.15911E-03   847   0.370E-01    0.106E-01
RMM:   9    -0.408185747045E+02    0.12110E-03   -0.95437E-05   471   0.940E-02    0.288E-02
RMM:  10    -0.408186165904E+02   -0.41886E-04   -0.22539E-05   451   0.397E-02
   2 F= -.40818617E+02 E0= -.40813942E+02  d E =0.122326E-01
       N       E                     dE             d eps       ncg     rms          rms(c)
DAV:   1    -0.408334247545E+02   -0.14850E-01   -0.62809E-01   880   0.339E+00    0.230E-01
RMM:   2    -0.408347672721E+02   -0.13425E-02   -0.20249E-02  1067   0.754E-01    0.507E-01
RMM:   3    -0.408369049609E+02   -0.21377E-02   -0.17087E-03   840   0.359E-01    0.112E+00
RMM:   4    -0.408375838851E+02   -0.67892E-03   -0.14251E-03   837   0.310E-01    0.106E+00
RMM:   5    -0.408338082404E+02    0.37756E-02   -0.17430E-03   859   0.368E-01    0.298E-01
RMM:   6    -0.408350228880E+02   -0.12146E-02   -0.21445E-03   853   0.377E-01    0.678E-01
RMM:   7    -0.408331972823E+02    0.18256E-02   -0.14842E-03   843   0.337E-01    0.587E-02
RMM:   8    -0.408331827489E+02    0.14533E-04   -0.14947E-04   481   0.118E-01
   3 F= -.40833183E+02 E0= -.40828586E+02  d E =-.145662E-01
       N       E                     dE             d eps       ncg     rms          rms(c)
DAV:   1    -0.408332973513E+02   -0.10007E-03   -0.23517E-02   916   0.872E-01    0.377E-02
RMM:   2    -0.408340937376E+02   -0.79639E-03   -0.51011E-04   674   0.213E-01    0.464E-01
RMM:   3    -0.408333627015E+02    0.73104E-03   -0.22996E-04   510   0.143E-01    0.116E-01
RMM:   4    -0.408333170848E+02    0.45617E-04   -0.32703E-05   433   0.440E-02
   4 F= -.40833317E+02 E0= -.40828758E+02  d E =-.134336E-03
