 vasp.5.2.2 15Apr09 complex 
 executed on             LinuxIFC date 2017.01.11  16:25:02
 running on    4 nodes
 distr:  one band on    1 nodes,    4 groups


--------------------------------------------------------------------------------------------------------


 INCAR:
 POTCAR:    PAW Ni                                
 POTCAR:    PAW C                                 
 POTCAR:    PAW O                                 
 POTCAR:    PAW Ni                                
   VRHFIN =Ni:                                                                  
   LEXCH  = 91                                                                  
   EATOM  =  1079.4692 eV,   79.3388 Ry                                         
                                                                                
   TITEL  = PAW Ni                                                              
   LULTRA =        F    use ultrasoft PP ?                                      
   IUNSCR =        1    unscreen: 0-lin 1-nonlin 2-no                           
   RPACOR =    2.000    partial core radius                                     
   POMASS =   58.690; ZVAL   =   10.000    mass and valenz                      
   RCORE  =    2.300    outmost cutoff radius                                   
   RWIGS  =    2.430; RWIGS  =    1.286    wigner-seitz radius (au A)           
   ENMAX  =  269.561; ENMIN  =  202.171 eV                                      
   RCLOC  =    1.681    cutoff for local pot                                    
   LCOR   =        T    correct aug charges                                     
   LPAW   =        T    paw PP                                                  
   EAUG   =  544.565                                                            
   DEXC   =    -.002                                                            
   RMAX   =    2.808    core radius for proj-oper                               
   RAUG   =    1.300    factor for augmentation sphere                          
   RDEP   =    2.390    core radius for depl-charge                             
   QCUT   =   -4.451; QGAM   =    8.902    optimization parameters              
                                                                                
   Description                                                                  
     l     E      TYP  RCUT    TYP  RCUT                                        
     2   .000     23  2.300                                                     
     2   .000     23  2.300                                                     
     0   .000     23  2.300                                                     
     0   .000     23  2.300                                                     
     1  -.200     23  2.300                                                     
     1   .000     23  2.300                                                     
     3   .000      7   .000                                                     
  local pseudopotential read in
  partial core-charges read in
  atomic valenz-charges read in
  non local Contribution for L=           2  read in
    real space projection operators read in
  non local Contribution for L=           2  read in
    real space projection operators read in
  non local Contribution for L=           0  read in
    real space projection operators read in
  non local Contribution for L=           0  read in
    real space projection operators read in
  non local Contribution for L=           1  read in
    real space projection operators read in
  non local Contribution for L=           1  read in
    real space projection operators read in
    PAW grid and wavefunctions read in
 
   number of l-projection  operators is LMAX  =           6
   number of lm-projection operators is LMMAX =          18
 
 POTCAR:    PAW C                                 
   VRHFIN =C: s2p2                                                              
   LEXCH  = 91                                                                  
   EATOM  =   147.4688 eV,   10.8386 Ry                                         
                                                                                
   TITEL  = PAW C                                                               
   LULTRA =        F    use ultrasoft PP ?                                      
   IUNSCR =        0    unscreen: 0-lin 1-nonlin 2-no                           
   RPACOR =     .000    partial core radius                                     
   POMASS =   12.011; ZVAL   =    4.000    mass and valenz                      
   RCORE  =    1.500    outmost cutoff radius                                   
   RWIGS  =    1.630; RWIGS  =     .863    wigner-seitz radius (au A)           
   ENMAX  =  400.000; ENMIN  =  300.000 eV                                      
   ICORE  =        2    local potential                                         
   LCOR   =        T    correct aug charges                                     
   LPAW   =        T    paw PP                                                  
   EAUG   =  644.873                                                            
   DEXC   =     .000                                                            
   RMAX   =    2.266    core radius for proj-oper                               
   RAUG   =    1.300    factor for augmentation sphere                          
   RDEP   =    1.501    radius for radial grids                                 
   RDEPT  =    1.300    core radius for aug-charge                              
   QCUT   =   -5.516; QGAM   =   11.033    optimization parameters              
                                                                                
   Description                                                                  
     l     E      TYP  RCUT    TYP  RCUT                                        
     0   .000     23  1.200                                                     
     0   .000     23  1.200                                                     
     1   .000     23  1.500                                                     
     1  2.500     23  1.500                                                     
     2   .000      7  1.500                                                     
  local pseudopotential read in
  atomic valenz-charges read in
  non local Contribution for L=           0  read in
    real space projection operators read in
  non local Contribution for L=           0  read in
    real space projection operators read in
  non local Contribution for L=           1  read in
    real space projection operators read in
  non local Contribution for L=           1  read in
    real space projection operators read in
    PAW grid and wavefunctions read in
 
   number of l-projection  operators is LMAX  =           4
   number of lm-projection operators is LMMAX =           8
 
 POTCAR:    PAW O                                 
   VRHFIN =O: s2p4                                                              
   LEXCH  = 91                                                                  
   EATOM  =   433.0277 eV,   31.8266 Ry                                         
                                                                                
   TITEL  = PAW O                                                               
   LULTRA =        F    use ultrasoft PP ?                                      
   IUNSCR =        0    unscreen: 0-lin 1-nonlin 2-no                           
   RPACOR =     .000    partial core radius                                     
   POMASS =   16.000; ZVAL   =    6.000    mass and valenz                      
   RCORE  =    1.520    outmost cutoff radius                                   
   RWIGS  =    1.550; RWIGS  =     .820    wigner-seitz radius (au A)           
   ENMAX  =  400.000; ENMIN  =  300.000 eV                                      
   ICORE  =        2    local potential                                         
   LCOR   =        T    correct aug charges                                     
   LPAW   =        T    paw PP                                                  
   EAUG   =  605.392                                                            
   DEXC   =     .000                                                            
   RMAX   =    2.264    core radius for proj-oper                               
   RAUG   =    1.300    factor for augmentation sphere                          
   RDEP   =    1.550    radius for radial grids                                 
   QCUT   =   -5.520; QGAM   =   11.040    optimization parameters              
                                                                                
   Description                                                                  
     l     E      TYP  RCUT    TYP  RCUT                                        
     0   .000     23  1.200                                                     
     0  -.700     23  1.200                                                     
     1   .000     23  1.520                                                     
     1   .600     23  1.520                                                     
     2   .000      7  1.500                                                     
  local pseudopotential read in
  atomic valenz-charges read in
  non local Contribution for L=           0  read in
    real space projection operators read in
  non local Contribution for L=           0  read in
    real space projection operators read in
  non local Contribution for L=           1  read in
    real space projection operators read in
  non local Contribution for L=           1  read in
    real space projection operators read in
    PAW grid and wavefunctions read in
 
   number of l-projection  operators is LMAX  =           4
   number of lm-projection operators is LMMAX =           8
 
  PAW Ni                                :
 energy of atom  1       EATOM=-1079.4692
 kinetic energy error for atom=    0.0101 (will be added to EATOM!!)
  PAW C                                 :
 energy of atom  2       EATOM= -147.4688
 kinetic energy error for atom=    0.0288 (will be added to EATOM!!)
  PAW O                                 :
 energy of atom  3       EATOM= -433.0277
 kinetic energy error for atom=    0.1156 (will be added to EATOM!!)
 
 
 POSCAR: Ni - (111) + CO on-top                  
  positions in direct lattice
  No initial velocities read in
 exchange correlation table for  LEXCH =        7
   RHO(1)=    0.500       N(1)  =     2000
   RHO(2)=  100.500       N(2)  =     4000
 


--------------------------------------------------------------------------------------------------------


 ion  position               nearest neighbor table
   1  0.000  0.000  0.000-   2 2.50   2 2.50   2 2.50
   2  0.333  0.667  0.111-   3 2.50   1 2.50   3 2.50   1 2.50   1 2.50   3 2.50
   3  0.667  0.333  0.222-   2 2.50   4 2.50   2 2.50   4 2.50   4 2.50   2 2.50
   4  0.000  0.000  0.333-   5 2.50   3 2.50   5 2.50   3 2.50   5 2.50   3 2.50
   5  0.333  0.667  0.444-   6 1.76   4 2.50   4 2.50   4 2.50
   6  0.333  0.667  0.540-   7 1.15   5 1.76
   7  0.333  0.667  0.603-   6 1.15
 
  LATTYP: Found a hexagonal cell.
 ALAT       =     2.4960868274
 C/A-ratio  =     7.3484695206
  
  Lattice vectors:
  
 A1 = (   2.4960869334,   0.0000000000,   0.0000000000)
 A2 = (  -1.2480434667,   2.1616745720,   0.0000000000)
 A3 = (   0.0000000000,   0.0000000000,  18.3424179720)
 Subroutine PRICEL returns:
 Original cell was already a primitive cell.
 

Analysis of symmetry for initial positions (statically):

 Routine SETGRP: Setting up the symmetry group for a 
 hexagonal supercell.


 Subroutine GETGRP returns: Found  6 space group operations
 (whereof  6 operations were pure point group operations)
 out of a pool of 24 trial point group operations.


The static configuration has the point symmetry C_3v.

Analysis of symmetry for dynamics (positions and initial velocities):

 Subroutine DYNSYM returns: Found  6 space group operations
 (whereof  6 operations were pure point group operations)
 out of a pool of  6 trial space group operations
 (whereof  6 operations were pure point group operations)
 and found also     1 'primitive' translations


The dynamic configuration has the point symmetry C_3v.

Analysis of constrained symmetry for selective dynamics:

 Subroutine DYNSYM returns: Found  6 space group operations
 (whereof  6 operations were pure point group operations)
 out of a pool of  6 trial space group operations
 (whereof  6 operations were pure point group operations)
 and found also     1 'primitive' translations


The constrained configuration has the point symmetry C_3v.
 
 
 KPOINTS: K-Points                                

Automatic generation of k-mesh.
 
 Subroutine IBZKPT returns following result:
 ===========================================
 
 Found     12 irreducible k-points:
 
 Following reciprocal coordinates:
            Coordinates               Weight
  0.000000  0.000000  0.000000      1.000000
  0.111111  0.000000  0.000000      6.000000
  0.222222  0.000000  0.000000      6.000000
  0.333333  0.000000  0.000000      6.000000
  0.444444  0.000000  0.000000      6.000000
  0.111111  0.111111  0.000000      6.000000
  0.222222  0.111111  0.000000     12.000000
  0.333333  0.111111  0.000000     12.000000
  0.444444  0.111111  0.000000      6.000000
  0.222222  0.222222  0.000000      6.000000
  0.333333  0.222222  0.000000     12.000000
  0.333333  0.333333  0.000000      2.000000
 
 Following cartesian coordinates:
            Coordinates               Weight
  0.000000  0.000000  0.000000      1.000000
  0.157135  0.090722  0.000000      6.000000
  0.314270  0.181444  0.000000      6.000000
  0.471405  0.272166  0.000000      6.000000
  0.628539  0.362887  0.000000      6.000000
  0.157135  0.272166  0.000000      6.000000
  0.314270  0.362887  0.000000     12.000000
  0.471405  0.453609  0.000000     12.000000
  0.628539  0.544331  0.000000      6.000000
  0.314270  0.544331  0.000000      6.000000
  0.471405  0.635053  0.000000     12.000000
  0.471405  0.816497  0.000000      2.000000
 


--------------------------------------------------------------------------------------------------------




 Dimension of arrays:
   k-points           NKPTS =     12   k-points in BZ     NKDIM =     12   number of bands    NBANDS=     36
   number of dos      NEDOS =    301   number of ions     NIONS =      7
   non local maximal  LDIM  =      6   non local SUM 2l+1 LMDIM =     18
   total plane-waves  NPLWV =  12960
   max r-space proj   IRMAX =      1   max aug-charges    IRDMAX=   4444
   dimension x,y,z NGX =    12 NGY =   12 NGZ =   90
   dimension x,y,z NGXF=    24 NGYF=   24 NGZF=  180
   support grid    NGXF=    24 NGYF=   24 NGZF=  180
   ions per type =               5   1   1
 NGX,Y,Z   is equivalent  to a cutoff of   7.99,  7.99,  8.16 a.u.
 NGXF,Y,Z  is equivalent  to a cutoff of  15.98, 15.98, 16.31 a.u.


 I would recommend the setting:
   dimension x,y,z NGX =    12 NGY =   12 NGZ =   90
 SYSTEM =  CO adsorption on Ni(111)                
 POSCAR =  Ni - (111) + CO on-top                  

 Startparameter for this run:
   NWRITE =      2    write-flag & timer
   PREC   = normal    medium, high low
   ISTART =      0    job   : 0-new  1-cont  2-samecut
   ICHARG =      2    charge: 1-file 2-atom 10-const
   ISPIN  =      1    spin polarized calculation?
   LNONCOLLINEAR =      F non collinear calculations
   LSORBIT =      F    spin-orbit coupling
   INIWAV =      1    electr: 0-lowe 1-rand  2-diag
   LASPH  =      F    aspherical Exc in radial PAW
   METAGGA=      F    non-selfconsistent MetaGGA calc.

 Electronic Relaxation 1
   ENCUT  =  400.0 eV  29.40 Ry    5.42 a.u.   4.07  4.07 29.91*2*pi/ulx,y,z
   ENINI  =  400.0     initial cutoff
   ENAUG  =  644.9 eV  augmentation charge cutoff
   NELM   =     60;   NELMIN=  2; NELMDL= -5     # of ELM steps 
   EDIFF  = 0.1E-03   stopping-criterion for ELM
   LREAL  =      F    real-space projection
   LCOMPAT=      F    compatible to vasp.4.4
   LREAL_COMPAT= F    compatible to vasp.4.5.1-3
   GGA_COMPAT  = T    GGA compatible to vasp.4.4-vasp.4.6
   LMAXPAW     = -100 max onsite density
   LMAXMIX     =    2 max onsite mixed and CHGCAR
   VOSKOWN=      0    Vosko Wilk Nusair interpolation
   ROPT   =    0.00000   0.00000   0.00000
 Ionic relaxation
   EDIFFG = 0.1E-02   stopping-criterion for IOM
   NSW    =    100    number of steps for IOM
   NBLOCK =      1;   KBLOCK =    100    inner block; outer block 
   IBRION =      1    ionic relax: 0-MD 1-quasi-New 2-CG
   NFREE  =      0    steps in history (QN), initial steepest desc. (CG)
   ISIF   =      2    stress and relaxation
   IWAVPR =     11    prediction:  0-non 1-charg 2-wave 3-comb
   ISYM   =      2    0-nonsym 1-usesym 2-fastsym
   LCORR  =      T    Harris-Foulkes like correction to forces

   POTIM  = 0.2000    time-step for ionic-motion
   TEIN   =    0.0    initial temperature
   TEBEG  =    0.0;   TEEND  =   0.0 temperature during run
   SMASS  =  -3.00    Nose mass-parameter (am)
   estimated Nose-frequenzy (Omega)   =  0.10E-29 period in steps =****** mass=  -0.142E-27a.u.
   NPACO  =    256;   APACO  = 16.0  distance and # of slots for P.C.
   PSTRESS=    0.0 pullay stress

  Mass of Ions in am
   POMASS =  58.69 12.01 16.00
  Ionic Valenz
   ZVAL   =  10.00  4.00  6.00
  Atomic Wigner-Seitz radii
   RWIGS  =  -1.00 -1.00 -1.00
   NELECT =      60.0000    total number of electrons
   NUPDOWN=      -1.0000    fix difference up-down

 DOS related values:
   EMIN   =  10.00;   EMAX   =-10.00  energy-range for DOS
   EFERMI =   0.00
   ISMEAR =     2;   SIGMA  =   0.20  broadening in eV -4-tet -1-fermi 0-gaus

 Electronic relaxation 2 (details)
   IALGO  =     68    algorithm
   LDIAG  =      T    sub-space diagonalisation
   IMIX   =      4    mixing-type and parameters
     AMIX     =   0.40;   BMIX     =  1.00
     AMIX_MAG =   1.60;   BMIX_MAG =  1.00
     AMIN     =   0.10
     WC   =   100.;   INIMIX=   1;  MIXPRE=   1

 Intra band minimization:
   WEIMIN = 0.0010     energy-eigenvalue tresh-hold
   EBREAK =  0.69E-06  absolut break condition
   DEPER  =   0.30     relativ break condition  

   TIME   =   0.40     timestep for ELM

  volume/ion in A,a.u.               =      14.14        95.41
  Fermi-wavevector in a.u.,A,eV,Ry     =   1.385553  2.618315 26.119870  1.919756
  Thomas-Fermi vector in A             =   2.509952
 
 Write flags
   LWAVE  =      T    write WAVECAR
   LCHARG =      T    write CHGCAR
   LVTOT  =      F    write LOCPOT, local potential
   LELF   =      F    write electronic localiz. function (ELF)
   LORBIT =      0    0 simple, 1 ext, 2 COOP (PROOUT)


 Dipole corrections
   LMONO  =      F    monopole corrections only (constant potential shift)
   LDIPOL =      F    correct potential (dipole corrections)
   IDIPOL =      0    1-x, 2-y, 3-z, 4-all directions 
   EPSILON=  1.0000000 bulk dielectric constant

 Exchange correlation treatment:
   GGA     =    --    GGA type
   LEXCH   =     7    internal setting for exchange type
   VOSKOWN=      0    Vosko Wilk Nusair interpolation
   LHFCALC =     F    Hartree Fock is set to
   LHFONE  =     F    Hartree Fock one center treatment
   AEXX    =    0.0000 exact exchange contribution

 Linear response parameters
   LEPSILON=     F    determine dielectric tensor
   LRPA    =     F    only Hartree local field effects (RPA)
   LNABLA  =     F    use nabla operator in PAW spheres
   LVEL    =     F    velocity operator in full k-point grid
   LINTERFAST=   F  fast interpolation
   KINTER  =     0    interpolate to denser k-point grid
   CSHIFT  =0.1000    complex shift for real part using Kramers Kronig
   OMEGAMAX=  -1.0    maximum frequency

 Orbital magnetization related:
   ORBITALMAG=     F  switch on orbital magnetization
   LCHIMAG   =     F  perturbation theory with respect to B field



--------------------------------------------------------------------------------------------------------


 quasi-Newton-method for relaxation of ions
   using selective dynamics as specified on POSCAR
 charge density and potential will be updated during run
 non-spin polarized calculation
 RMM-DIIS sequential band-by-band and
  variant of blocked Davidson during initial phase
 perform sub-space diagonalisation
    before iterative eigenvector-optimisation
 modified Broyden-mixing scheme, WC =      100.0
 initial mixing is a Kerker type mixing with AMIX =  0.4000 and BMIX =      1.0000
 Hartree-type preconditioning will be used
 using additional bands            6
 reciprocal scheme for non local part
 use partial core corrections
 calculate Harris-corrections to forces 
   (improved forces if not selfconsistent)
 use gradient corrections 
 use of overlap-Matrix (Vanderbilt PP)
 Methfessel and Paxton  Order N= 2 SIGMA  =   0.20


--------------------------------------------------------------------------------------------------------


  energy-cutoff  :      400.00
  volume of cell :       98.97
      direct lattice vectors                 reciprocal lattice vectors
     2.496086933  0.000000000  0.000000000     0.400627072  0.231302161  0.000000000
    -1.248043467  2.161674572  0.000000000     0.000000000  0.462604322  0.000000000
     0.000000000  0.000000000 18.342417972     0.000000000  0.000000000  0.054518439

  length of vectors
     2.496086933  2.496086827 18.342417972     0.462604302  0.462604322  0.054518439


 
 k-points in units of 2pi/SCALE and weight: K-Points                                
   0.00000000  0.00000000  0.00000000       0.012
   0.15713484  0.09072185  0.00000000       0.074
   0.31426968  0.18144370  0.00000000       0.074
   0.47140452  0.27216554  0.00000000       0.074
   0.62853936  0.36288739  0.00000000       0.074
   0.15713484  0.27216554  0.00000000       0.074
   0.31426968  0.36288739  0.00000000       0.148
   0.47140452  0.45360924  0.00000000       0.148
   0.62853936  0.54433109  0.00000000       0.074
   0.31426968  0.54433109  0.00000000       0.074
   0.47140452  0.63505293  0.00000000       0.148
   0.47140452  0.81649663  0.00000000       0.025
 
 k-points in reciprocal lattice and weights: K-Points                                
   0.00000000  0.00000000  0.00000000       0.012
   0.11111111  0.00000000  0.00000000       0.074
   0.22222222  0.00000000  0.00000000       0.074
   0.33333333  0.00000000  0.00000000       0.074
   0.44444444  0.00000000  0.00000000       0.074
   0.11111111  0.11111111  0.00000000       0.074
   0.22222222  0.11111111  0.00000000       0.148
   0.33333333  0.11111111  0.00000000       0.148
   0.44444444  0.11111111  0.00000000       0.074
   0.22222222  0.22222222  0.00000000       0.074
   0.33333333  0.22222222  0.00000000       0.148
   0.33333333  0.33333333  0.00000000       0.025
 
 position of ions in fractional coordinates (direct lattice) 
   0.00000000  0.00000000  0.00000000
   0.33333333  0.66666667  0.11111111
   0.66666667  0.33333333  0.22222222
   0.00000000  0.00000000  0.33333333
   0.33333333  0.66666667  0.44444444
   0.33333333  0.66666667  0.54029062
   0.33333333  0.66666667  0.60298866
 
 position of ions in cartesian coordinates  (Angst):
   0.00000000  0.00000000  0.00000000
  -0.00000001  1.44111639  2.03804642
   1.24804348  0.72055818  4.07609284
   0.00000000  0.00000000  6.11413926
  -0.00000001  1.44111639  8.15218568
  -0.00000001  1.44111639  9.91023638
  -0.00000001  1.44111639 11.06027003
 


--------------------------------------------------------------------------------------------------------


 k-point  1 :  0.00000.00000.0000  plane waves:    1733
 k-point  2 :  0.11110.00000.0000  plane waves:    1735
 k-point  3 :  0.22220.00000.0000  plane waves:    1789
 k-point  4 :  0.33330.00000.0000  plane waves:    1791
 k-point  5 :  0.44440.00000.0000  plane waves:    1803
 k-point  6 :  0.11110.11110.0000  plane waves:    1778
 k-point  7 :  0.22220.11110.0000  plane waves:    1801
 k-point  8 :  0.33330.11110.0000  plane waves:    1813
 k-point  9 :  0.44440.11110.0000  plane waves:    1824
 k-point 10 :  0.22220.22220.0000  plane waves:    1794
 k-point 11 :  0.33330.22220.0000  plane waves:    1809
 k-point 12 :  0.33330.33330.0000  plane waves:    1800

 maximum and minimum number of plane-waves per node :    1824   1733

 maximum number of plane-waves:    1824
 maximal index in each direction: 
   IXMAX=  4   IYMAX=  4   IZMAX= 29
   IXMIN= -4   IYMIN= -4   IZMIN=-29

 WARNING: aliasing errors must be expected set NGX to  18 to avoid them
 WARNING: aliasing errors must be expected set NGY to  18 to avoid them
 WARNING: aliasing errors must be expected set NGZ to 118 to avoid them
 aliasing errors are usually negligible using standard VASP settings
 and one can safely disregard these warnings

 serial   3D FFT for wavefunctions
 parallel 3D FFT for charge:
    minimum data exchange during FFTs selected (reduces bandwidth)


 total amount of memory used by VASP on root node  47466. kBytes
========================================================================

   base      :    30000. kBytes
   nonl-proj :     9659. kBytes
   fftplans  :      924. kBytes
   grid      :     3437. kBytes
   one-center:      108. kBytes
   wavefun   :     3338. kBytes
 
 Broyden mixing: mesh for mixing (old mesh)
   NGX =  9   NGY =  9   NGZ = 59
  (NGX  = 24   NGY  = 24   NGZ  =180)
  gives a total of   4779 points

 initial charge density was supplied:
 charge density of overlapping atoms calculated
 number of electron   60.0000000 magnetization 
 keeping initial charge density in first step


--------------------------------------------------------------------------------------------------------


 Maximum index for augmentation-charges         1045 (set IRDMAX)


--------------------------------------------------------------------------------------------------------


 First call to EWALD:  gamma=   0.383
 Maximum number of real-space cells 5x 5x 1
 Maximum number of reciprocal cells 2x 2x 9

    FEWALD:  cpu time    0.00: real time    0.00
   RESPFUN:  cpu time    0.00: real time    0.00


----------------------------------------- Iteration    1(   1)  ---------------------------------------


    POTLOK:  cpu time    0.02: real time    0.02
    SETDIJ:  cpu time    0.00: real time    0.00
     EDDAV:  cpu time    0.31: real time    0.31
       DOS:  cpu time    0.00: real time    0.00
    --------------------------------------------
      LOOP:  cpu time    0.34: real time    0.34

 eigenvalue-minimisations  :   864
 total energy-change (2. order) : 0.4660166E+03  (-0.2453707E+04)
 number of electron   60.0000000 magnetization 
 augmentation part    60.0000000 magnetization 

 Free energy of the ion-electron system (eV)
  ---------------------------------------------------
  alpha Z        PSCENC =       330.36518305
  Ewald energy   TEWEN  =      4486.17921864
  -1/2 Hartree   DENC   =    -10634.70466857
  -exchange  EXHF       =         0.00000000
  -V(xc)+E(xc)   XCENC  =       198.15111553
  PAW double counting   =      4641.46468397    -4980.73307793
  entropy T*S    EENTRO =        -0.00458791
  eigenvalues    EBANDS =       447.65091712
  atomic energy  EATOM  =      5977.64779135
  ---------------------------------------------------
  free energy    TOTEN  =       466.01657526 eV

  energy without entropy =      466.02116317  energy(sigma->0) =      466.01772224


--------------------------------------------------------------------------------------------------------




----------------------------------------- Iteration    1(   2)  ---------------------------------------


     EDDAV:  cpu time    0.30: real time    0.30
       DOS:  cpu time    0.00: real time    0.00
    --------------------------------------------
      LOOP:  cpu time    0.30: real time    0.30

 eigenvalue-minimisations  :   868
 total energy-change (2. order) :-0.4453570E+03  (-0.4296568E+03)
 number of electron   60.0000000 magnetization 
 augmentation part    60.0000000 magnetization 

 Free energy of the ion-electron system (eV)
  ---------------------------------------------------
  alpha Z        PSCENC =       330.36518305
  Ewald energy   TEWEN  =      4486.17921864
  -1/2 Hartree   DENC   =    -10634.70466857
  -exchange  EXHF       =         0.00000000
  -V(xc)+E(xc)   XCENC  =       198.15111553
  PAW double counting   =      4641.46468397    -4980.73307793
  entropy T*S    EENTRO =        -0.00193540
  eigenvalues    EBANDS =         2.29124945
  atomic energy  EATOM  =      5977.64779135
  ---------------------------------------------------
  free energy    TOTEN  =        20.65956010 eV

  energy without entropy =       20.66149550  energy(sigma->0) =       20.66004395


--------------------------------------------------------------------------------------------------------




----------------------------------------- Iteration    1(   3)  ---------------------------------------


     EDDAV:  cpu time    0.37: real time    0.38
       DOS:  cpu time    0.00: real time    0.00
    --------------------------------------------
      LOOP:  cpu time    0.38: real time    0.38

 eigenvalue-minimisations  :  1184
 total energy-change (2. order) :-0.6273284E+02  (-0.5556265E+02)
 number of electron   60.0000000 magnetization 
 augmentation part    60.0000000 magnetization 

 Free energy of the ion-electron system (eV)
  ---------------------------------------------------
  alpha Z        PSCENC =       330.36518305
  Ewald energy   TEWEN  =      4486.17921864
  -1/2 Hartree   DENC   =    -10634.70466857
  -exchange  EXHF       =         0.00000000
  -V(xc)+E(xc)   XCENC  =       198.15111553
  PAW double counting   =      4641.46468397    -4980.73307793
  entropy T*S    EENTRO =        -0.02777048
  eigenvalues    EBANDS =       -60.41575436
  atomic energy  EATOM  =      5977.64779135
  ---------------------------------------------------
  free energy    TOTEN  =       -42.07327879 eV

  energy without entropy =      -42.04550831  energy(sigma->0) =      -42.06633617


--------------------------------------------------------------------------------------------------------




----------------------------------------- Iteration    1(   4)  ---------------------------------------


     EDDAV:  cpu time    0.32: real time    0.32
       DOS:  cpu time    0.00: real time    0.00
    --------------------------------------------
      LOOP:  cpu time    0.33: real time    0.33

 eigenvalue-minimisations  :   996
 total energy-change (2. order) :-0.5109130E+01  (-0.4987123E+01)
 number of electron   60.0000000 magnetization 
 augmentation part    60.0000000 magnetization 

 Free energy of the ion-electron system (eV)
  ---------------------------------------------------
  alpha Z        PSCENC =       330.36518305
  Ewald energy   TEWEN  =      4486.17921864
  -1/2 Hartree   DENC   =    -10634.70466857
  -exchange  EXHF       =         0.00000000
  -V(xc)+E(xc)   XCENC  =       198.15111553
  PAW double counting   =      4641.46468397    -4980.73307793
  entropy T*S    EENTRO =        -0.03466311
  eigenvalues    EBANDS =       -65.51799126
  atomic energy  EATOM  =      5977.64779135
  ---------------------------------------------------
  free energy    TOTEN  =       -47.18240833 eV

  energy without entropy =      -47.14774521  energy(sigma->0) =      -47.17374255


--------------------------------------------------------------------------------------------------------




----------------------------------------- Iteration    1(   5)  ---------------------------------------


     EDDAV:  cpu time    0.39: real time    0.39
       DOS:  cpu time    0.00: real time    0.00
    CHARGE:  cpu time    0.02: real time    0.02
    MIXING:  cpu time    0.00: real time    0.00
    --------------------------------------------
      LOOP:  cpu time    0.42: real time    0.42

 eigenvalue-minimisations  :  1264
 total energy-change (2. order) :-0.2117509E+00  (-0.2108790E+00)
 number of electron   59.9999527 magnetization 
 augmentation part    28.5156192 magnetization 

 Broyden mixing:
  rms(total) = 0.21655E+01    rms(broyden)= 0.21650E+01
  rms(prec ) = 0.24106E+01
  weight for this iteration     100.00

 Free energy of the ion-electron system (eV)
  ---------------------------------------------------
  alpha Z        PSCENC =       330.36518305
  Ewald energy   TEWEN  =      4486.17921864
  -1/2 Hartree   DENC   =    -10634.70466857
  -exchange  EXHF       =         0.00000000
  -V(xc)+E(xc)   XCENC  =       198.15111553
  PAW double counting   =      4641.46468397    -4980.73307793
  entropy T*S    EENTRO =        -0.03457987
  eigenvalues    EBANDS =       -65.72982536
  atomic energy  EATOM  =      5977.64779135
  ---------------------------------------------------
  free energy    TOTEN  =       -47.39415918 eV

  energy without entropy =      -47.35957931  energy(sigma->0) =      -47.38551421


--------------------------------------------------------------------------------------------------------




----------------------------------------- Iteration    1(   6)  ---------------------------------------


    POTLOK:  cpu time    0.02: real time    0.02
    SETDIJ:  cpu time    0.00: real time    0.00
    EDDIAG:  cpu time    0.06: real time    0.06
  RMM-DIIS:  cpu time    0.20: real time    0.20
    ORTHCH:  cpu time    0.01: real time    0.01
       DOS:  cpu time    0.00: real time    0.00
    CHARGE:  cpu time    0.02: real time    0.02
    MIXING:  cpu time    0.00: real time    0.00
    --------------------------------------------
      LOOP:  cpu time    0.32: real time    0.32

 eigenvalue-minimisations  :   883
 total energy-change (2. order) :-0.6156556E+01  (-0.1007815E+02)
 number of electron   59.9999353 magnetization 
 augmentation part    35.0666088 magnetization 

 Broyden mixing:
  rms(total) = 0.26502E+01    rms(broyden)= 0.26490E+01
  rms(prec ) = 0.37494E+01
  weight for this iteration     100.00

 eigenvalues of (default mixing * dielectric matrix)
  average eigenvalue GAMMA=   0.4526
  0.4526

 Free energy of the ion-electron system (eV)
  ---------------------------------------------------
  alpha Z        PSCENC =       330.36518305
  Ewald energy   TEWEN  =      4486.17921864
  -1/2 Hartree   DENC   =    -10496.28194246
  -exchange  EXHF       =         0.00000000
  -V(xc)+E(xc)   XCENC  =       192.39784391
  PAW double counting   =      4609.45331054    -4922.33159953
  entropy T*S    EENTRO =         0.01939640
  eigenvalues    EBANDS =      -230.99991700
  atomic energy  EATOM  =      5977.64779135
  ---------------------------------------------------
  free energy    TOTEN  =       -53.55071510 eV

  energy without entropy =      -53.57011150  energy(sigma->0) =      -53.55556420


--------------------------------------------------------------------------------------------------------




----------------------------------------- Iteration    1(   7)  ---------------------------------------


    POTLOK:  cpu time    0.02: real time    0.02
    SETDIJ:  cpu time    0.00: real time    0.00
    EDDIAG:  cpu time    0.05: real time    0.06
  RMM-DIIS:  cpu time    0.20: real time    0.20
    ORTHCH:  cpu time    0.01: real time    0.01
       DOS:  cpu time    0.00: real time    0.00
    CHARGE:  cpu time    0.02: real time    0.02
    MIXING:  cpu time    0.00: real time    0.00
    --------------------------------------------
      LOOP:  cpu time    0.32: real time    0.32

 eigenvalue-minimisations  :   876
 total energy-change (2. order) : 0.2638652E+01  (-0.2726066E+01)
 number of electron   59.9999449 magnetization 
 augmentation part    30.4329710 magnetization 

 Broyden mixing:
  rms(total) = 0.35087E+01    rms(broyden)= 0.35075E+01
  rms(prec ) = 0.58972E+01
  weight for this iteration     100.00

 eigenvalues of (default mixing * dielectric matrix)
  average eigenvalue GAMMA=   0.2580
  0.4693  0.0468

 Free energy of the ion-electron system (eV)
  ---------------------------------------------------
  alpha Z        PSCENC =       330.36518305
  Ewald energy   TEWEN  =      4486.17921864
  -1/2 Hartree   DENC   =    -10580.38555669
  -exchange  EXHF       =         0.00000000
  -V(xc)+E(xc)   XCENC  =       194.15213618
  PAW double counting   =      4742.26114900    -5075.67970187
  entropy T*S    EENTRO =         0.01271469
  eigenvalues    EBANDS =      -125.46499731
  atomic energy  EATOM  =      5977.64779135
  ---------------------------------------------------
  free energy    TOTEN  =       -50.91206296 eV

  energy without entropy =      -50.92477765  energy(sigma->0) =      -50.91524163


--------------------------------------------------------------------------------------------------------




----------------------------------------- Iteration    1(   8)  ---------------------------------------


    POTLOK:  cpu time    0.02: real time    0.02
    SETDIJ:  cpu time    0.00: real time    0.00
    EDDIAG:  cpu time    0.06: real time    0.06
  RMM-DIIS:  cpu time    0.21: real time    0.21
    ORTHCH:  cpu time    0.01: real time    0.01
       DOS:  cpu time    0.00: real time    0.00
    CHARGE:  cpu time    0.02: real time    0.02
    MIXING:  cpu time    0.00: real time    0.00
    --------------------------------------------
      LOOP:  cpu time    0.32: real time    0.32

 eigenvalue-minimisations  :   902
 total energy-change (2. order) : 0.6517238E+01  (-0.5317938E+00)
 number of electron   59.9999445 magnetization 
 augmentation part    31.1694227 magnetization 

 Broyden mixing:
  rms(total) = 0.22247E+01    rms(broyden)= 0.22242E+01
  rms(prec ) = 0.31672E+01
  weight for this iteration     100.00

 eigenvalues of (default mixing * dielectric matrix)
  average eigenvalue GAMMA=   0.2170
  0.4918  0.0796  0.0796

 Free energy of the ion-electron system (eV)
  ---------------------------------------------------
  alpha Z        PSCENC =       330.36518305
  Ewald energy   TEWEN  =      4486.17921864
  -1/2 Hartree   DENC   =    -10583.34166570
  -exchange  EXHF       =         0.00000000
  -V(xc)+E(xc)   XCENC  =       194.22861533
  PAW double counting   =      4755.20408931    -5090.48244505
  entropy T*S    EENTRO =        -0.00869202
  eigenvalues    EBANDS =      -114.18691942
  atomic energy  EATOM  =      5977.64779135
  ---------------------------------------------------
  free energy    TOTEN  =       -44.39482450 eV

  energy without entropy =      -44.38613249  energy(sigma->0) =      -44.39265150


--------------------------------------------------------------------------------------------------------




----------------------------------------- Iteration    1(   9)  ---------------------------------------


    POTLOK:  cpu time    0.02: real time    0.02
    SETDIJ:  cpu time    0.00: real time    0.00
    EDDIAG:  cpu time    0.06: real time    0.06
  RMM-DIIS:  cpu time    0.20: real time    0.20
    ORTHCH:  cpu time    0.01: real time    0.01
       DOS:  cpu time    0.00: real time    0.00
    CHARGE:  cpu time    0.02: real time    0.02
    MIXING:  cpu time    0.00: real time    0.00
    --------------------------------------------
      LOOP:  cpu time    0.32: real time    0.32

 eigenvalue-minimisations  :   885
 total energy-change (2. order) : 0.4644409E+00  (-0.3327226E+00)
 number of electron   59.9999454 magnetization 
 augmentation part    31.4249902 magnetization 

 Broyden mixing:
  rms(total) = 0.20698E+01    rms(broyden)= 0.20694E+01
  rms(prec ) = 0.26383E+01
  weight for this iteration     100.00

 eigenvalues of (default mixing * dielectric matrix)
  average eigenvalue GAMMA=   0.2800
  0.7100  0.2165  0.1324  0.0609

 Free energy of the ion-electron system (eV)
  ---------------------------------------------------
  alpha Z        PSCENC =       330.36518305
  Ewald energy   TEWEN  =      4486.17921864
  -1/2 Hartree   DENC   =    -10568.75573644
  -exchange  EXHF       =         0.00000000
  -V(xc)+E(xc)   XCENC  =       194.27027826
  PAW double counting   =      4770.88838156    -5107.52045608
  entropy T*S    EENTRO =        -0.01011399
  eigenvalues    EBANDS =      -126.99492995
  atomic energy  EATOM  =      5977.64779135
  ---------------------------------------------------
  free energy    TOTEN  =       -43.93038362 eV

  energy without entropy =      -43.92026963  energy(sigma->0) =      -43.92785512


--------------------------------------------------------------------------------------------------------




----------------------------------------- Iteration    1(  10)  ---------------------------------------


    POTLOK:  cpu time    0.02: real time    0.02
    SETDIJ:  cpu time    0.00: real time    0.00
    EDDIAG:  cpu time    0.06: real time    0.06
  RMM-DIIS:  cpu time    0.20: real time    0.20
    ORTHCH:  cpu time    0.01: real time    0.01
       DOS:  cpu time    0.00: real time    0.00
    CHARGE:  cpu time    0.02: real time    0.02
    MIXING:  cpu time    0.00: real time    0.00
    --------------------------------------------
      LOOP:  cpu time    0.32: real time    0.32

 eigenvalue-minimisations  :   881
 total energy-change (2. order) :-0.4913144E-03  (-0.3132299E+00)
 number of electron   59.9999447 magnetization 
 augmentation part    31.1581017 magnetization 

 Broyden mixing:
  rms(total) = 0.22221E+01    rms(broyden)= 0.22219E+01
  rms(prec ) = 0.29081E+01
  weight for this iteration     100.00

 eigenvalues of (default mixing * dielectric matrix)
  average eigenvalue GAMMA=   0.2676
  0.8316  0.2750  0.0973  0.0848  0.0491

 Free energy of the ion-electron system (eV)
  ---------------------------------------------------
  alpha Z        PSCENC =       330.36518305
  Ewald energy   TEWEN  =      4486.17921864
  -1/2 Hartree   DENC   =    -10582.09624832
  -exchange  EXHF       =         0.00000000
  -V(xc)+E(xc)   XCENC  =       194.46419323
  PAW double counting   =      4813.34384791    -5154.08217446
  entropy T*S    EENTRO =         0.01106058
  eigenvalues    EBANDS =      -109.76374691
  atomic energy  EATOM  =      5977.64779135
  ---------------------------------------------------
  free energy    TOTEN  =       -43.93087493 eV

  energy without entropy =      -43.94193551  energy(sigma->0) =      -43.93364008


--------------------------------------------------------------------------------------------------------




----------------------------------------- Iteration    1(  11)  ---------------------------------------


    POTLOK:  cpu time    0.02: real time    0.02
    SETDIJ:  cpu time    0.00: real time    0.00
    EDDIAG:  cpu time    0.06: real time    0.06
  RMM-DIIS:  cpu time    0.21: real time    0.21
    ORTHCH:  cpu time    0.01: real time    0.01
       DOS:  cpu time    0.00: real time    0.00
    CHARGE:  cpu time    0.02: real time    0.02
    MIXING:  cpu time    0.00: real time    0.00
    --------------------------------------------
      LOOP:  cpu time    0.33: real time    0.33

 eigenvalue-minimisations  :   889
 total energy-change (2. order) : 0.1951477E+01  (-0.1017319E+00)
 number of electron   59.9999468 magnetization 
 augmentation part    31.4634622 magnetization 

 Broyden mixing:
  rms(total) = 0.11831E+01    rms(broyden)= 0.11826E+01
  rms(prec ) = 0.17936E+01
  weight for this iteration     100.00

 eigenvalues of (default mixing * dielectric matrix)
  average eigenvalue GAMMA=   0.2460
  0.8647  0.2667  0.1105  0.1105  0.0619  0.0619

 Free energy of the ion-electron system (eV)
  ---------------------------------------------------
  alpha Z        PSCENC =       330.36518305
  Ewald energy   TEWEN  =      4486.17921864
  -1/2 Hartree   DENC   =    -10576.27654761
  -exchange  EXHF       =         0.00000000
  -V(xc)+E(xc)   XCENC  =       194.46763755
  PAW double counting   =      4823.85811358    -5165.32601977
  entropy T*S    EENTRO =        -0.01718093
  eigenvalues    EBANDS =      -112.87759352
  atomic energy  EATOM  =      5977.64779135
  ---------------------------------------------------
  free energy    TOTEN  =       -41.97939766 eV

  energy without entropy =      -41.96221672  energy(sigma->0) =      -41.97510242


--------------------------------------------------------------------------------------------------------




----------------------------------------- Iteration    1(  12)  ---------------------------------------


    POTLOK:  cpu time    0.02: real time    0.02
    SETDIJ:  cpu time    0.00: real time    0.00
    EDDIAG:  cpu time    0.06: real time    0.06
  RMM-DIIS:  cpu time    0.20: real time    0.21
    ORTHCH:  cpu time    0.01: real time    0.01
       DOS:  cpu time    0.00: real time    0.00
    CHARGE:  cpu time    0.02: real time    0.02
    MIXING:  cpu time    0.00: real time    0.00
    --------------------------------------------
      LOOP:  cpu time    0.32: real time    0.32

 eigenvalue-minimisations  :   894
 total energy-change (2. order) : 0.6961678E+00  (-0.6737895E-01)
 number of electron   59.9999451 magnetization 
 augmentation part    31.4694672 magnetization 

 Broyden mixing:
  rms(total) = 0.99468E+00    rms(broyden)= 0.99435E+00
  rms(prec ) = 0.13855E+01
  weight for this iteration     100.00

 eigenvalues of (default mixing * dielectric matrix)
  average eigenvalue GAMMA=   0.3506
  1.1041  0.6786  0.3142  0.1220  0.1220  0.0566  0.0566

 Free energy of the ion-electron system (eV)
  ---------------------------------------------------
  alpha Z        PSCENC =       330.36518305
  Ewald energy   TEWEN  =      4486.17921864
  -1/2 Hartree   DENC   =    -10574.21653806
  -exchange  EXHF       =         0.00000000
  -V(xc)+E(xc)   XCENC  =       194.50236499
  PAW double counting   =      4836.36143756    -5178.67770131
  entropy T*S    EENTRO =        -0.02342113
  eigenvalues    EBANDS =      -113.42156500
  atomic energy  EATOM  =      5977.64779135
  ---------------------------------------------------
  free energy    TOTEN  =       -41.28322990 eV

  energy without entropy =      -41.25980877  energy(sigma->0) =      -41.27737462


--------------------------------------------------------------------------------------------------------




----------------------------------------- Iteration    1(  13)  ---------------------------------------


    POTLOK:  cpu time    0.02: real time    0.02
    SETDIJ:  cpu time    0.00: real time    0.00
    EDDIAG:  cpu time    0.06: real time    0.06
  RMM-DIIS:  cpu time    0.21: real time    0.21
    ORTHCH:  cpu time    0.01: real time    0.01
       DOS:  cpu time    0.00: real time    0.00
    CHARGE:  cpu time    0.02: real time    0.02
    MIXING:  cpu time    0.00: real time    0.00
    --------------------------------------------
      LOOP:  cpu time    0.33: real time    0.33

 eigenvalue-minimisations  :   912
 total energy-change (2. order) : 0.3599571E+00  (-0.3207941E-01)
 number of electron   59.9999455 magnetization 
 augmentation part    31.4903627 magnetization 

 Broyden mixing:
  rms(total) = 0.36131E+00    rms(broyden)= 0.36113E+00
  rms(prec ) = 0.53879E+00
  weight for this iteration     100.00

 eigenvalues of (default mixing * dielectric matrix)
  average eigenvalue GAMMA=   0.4522
  1.7702  0.5843  0.5843  0.3193  0.1232  0.1232  0.0566  0.0566

 Free energy of the ion-electron system (eV)
  ---------------------------------------------------
  alpha Z        PSCENC =       330.36518305
  Ewald energy   TEWEN  =      4486.17921864
  -1/2 Hartree   DENC   =    -10573.71793987
  -exchange  EXHF       =         0.00000000
  -V(xc)+E(xc)   XCENC  =       194.58228579
  PAW double counting   =      4892.97829648    -5237.78503089
  entropy T*S    EENTRO =        -0.02937186
  eigenvalues    EBANDS =      -111.14370550
  atomic energy  EATOM  =      5977.64779135
  ---------------------------------------------------
  free energy    TOTEN  =       -40.92327280 eV

  energy without entropy =      -40.89390094  energy(sigma->0) =      -40.91592984


--------------------------------------------------------------------------------------------------------




----------------------------------------- Iteration    1(  14)  ---------------------------------------


    POTLOK:  cpu time    0.02: real time    0.02
    SETDIJ:  cpu time    0.00: real time    0.00
    EDDIAG:  cpu time    0.06: real time    0.06
  RMM-DIIS:  cpu time    0.21: real time    0.21
    ORTHCH:  cpu time    0.01: real time    0.01
       DOS:  cpu time    0.00: real time    0.00
    CHARGE:  cpu time    0.02: real time    0.02
    MIXING:  cpu time    0.00: real time    0.00
    --------------------------------------------
      LOOP:  cpu time    0.33: real time    0.33

 eigenvalue-minimisations  :   887
 total energy-change (2. order) : 0.6213112E-01  (-0.6568369E-02)
 number of electron   59.9999456 magnetization 
 augmentation part    31.5515292 magnetization 

 Broyden mixing:
  rms(total) = 0.23453E+00    rms(broyden)= 0.23445E+00
  rms(prec ) = 0.33582E+00
  weight for this iteration     100.00

 eigenvalues of (default mixing * dielectric matrix)
  average eigenvalue GAMMA=   0.5577
  2.1176  0.8404  0.8404  0.5536  0.3073  0.1236  0.1236  0.0566  0.0566

 Free energy of the ion-electron system (eV)
  ---------------------------------------------------
  alpha Z        PSCENC =       330.36518305
  Ewald energy   TEWEN  =      4486.17921864
  -1/2 Hartree   DENC   =    -10573.01226772
  -exchange  EXHF       =         0.00000000
  -V(xc)+E(xc)   XCENC  =       194.48656738
  PAW double counting   =      4927.98625463    -5274.17513749
  entropy T*S    EENTRO =        -0.01861420
  eigenvalues    EBANDS =      -110.32013733
  atomic energy  EATOM  =      5977.64779135
  ---------------------------------------------------
  free energy    TOTEN  =       -40.86114169 eV

  energy without entropy =      -40.84252749  energy(sigma->0) =      -40.85648814


--------------------------------------------------------------------------------------------------------




----------------------------------------- Iteration    1(  15)  ---------------------------------------


    POTLOK:  cpu time    0.02: real time    0.02
    SETDIJ:  cpu time    0.00: real time    0.00
    EDDIAG:  cpu time    0.06: real time    0.06
  RMM-DIIS:  cpu time    0.22: real time    0.22
    ORTHCH:  cpu time    0.01: real time    0.01
       DOS:  cpu time    0.00: real time    0.00
    CHARGE:  cpu time    0.02: real time    0.02
    MIXING:  cpu time    0.00: real time    0.00
    --------------------------------------------
      LOOP:  cpu time    0.34: real time    0.34

 eigenvalue-minimisations  :   908
 total energy-change (2. order) : 0.1328805E-01  (-0.3856180E-02)
 number of electron   59.9999453 magnetization 
 augmentation part    31.6046598 magnetization 

 Broyden mixing:
  rms(total) = 0.19860E+00    rms(broyden)= 0.19855E+00
  rms(prec ) = 0.29131E+00
  weight for this iteration     100.00

 eigenvalues of (default mixing * dielectric matrix)
  average eigenvalue GAMMA=   0.6018
  2.2574  1.1268  0.7367  0.7367  0.4880  0.3121  0.1235  0.1235  0.0566  0.0566

 Free energy of the ion-electron system (eV)
  ---------------------------------------------------
  alpha Z        PSCENC =       330.36518305
  Ewald energy   TEWEN  =      4486.17921864
  -1/2 Hartree   DENC   =    -10572.26533184
  -exchange  EXHF       =         0.00000000
  -V(xc)+E(xc)   XCENC  =       194.42940715
  PAW double counting   =      4950.90677191    -5297.75991616
  entropy T*S    EENTRO =        -0.01943355
  eigenvalues    EBANDS =      -110.33154419
  atomic energy  EATOM  =      5977.64779135
  ---------------------------------------------------
  free energy    TOTEN  =       -40.84785364 eV

  energy without entropy =      -40.82842009  energy(sigma->0) =      -40.84299525


--------------------------------------------------------------------------------------------------------




----------------------------------------- Iteration    1(  16)  ---------------------------------------


    POTLOK:  cpu time    0.02: real time    0.02
    SETDIJ:  cpu time    0.00: real time    0.00
    EDDIAG:  cpu time    0.06: real time    0.06
  RMM-DIIS:  cpu time    0.20: real time    0.20
    ORTHCH:  cpu time    0.01: real time    0.01
       DOS:  cpu time    0.00: real time    0.00
    CHARGE:  cpu time    0.02: real time    0.02
    MIXING:  cpu time    0.00: real time    0.00
    --------------------------------------------
      LOOP:  cpu time    0.32: real time    0.32

 eigenvalue-minimisations  :   876
 total energy-change (2. order) : 0.1458725E-01  (-0.1012158E-02)
 number of electron   59.9999454 magnetization 
 augmentation part    31.6066421 magnetization 

 Broyden mixing:
  rms(total) = 0.61082E-01    rms(broyden)= 0.61034E-01
  rms(prec ) = 0.77952E-01
  weight for this iteration     100.00

 eigenvalues of (default mixing * dielectric matrix)
  average eigenvalue GAMMA=   0.6461
  2.2626  1.5209  0.7825  0.6944  0.6944  0.4801  0.3116  0.1235  0.1235  0.0566
  0.0566

 Free energy of the ion-electron system (eV)
  ---------------------------------------------------
  alpha Z        PSCENC =       330.36518305
  Ewald energy   TEWEN  =      4486.17921864
  -1/2 Hartree   DENC   =    -10573.42020588
  -exchange  EXHF       =         0.00000000
  -V(xc)+E(xc)   XCENC  =       194.40844300
  PAW double counting   =      4971.07869049    -5318.45132799
  entropy T*S    EENTRO =        -0.01804663
  eigenvalues    EBANDS =      -108.62301242
  atomic energy  EATOM  =      5977.64779135
  ---------------------------------------------------
  free energy    TOTEN  =       -40.83326639 eV

  energy without entropy =      -40.81521975  energy(sigma->0) =      -40.82875473


--------------------------------------------------------------------------------------------------------




----------------------------------------- Iteration    1(  17)  ---------------------------------------


    POTLOK:  cpu time    0.02: real time    0.02
    SETDIJ:  cpu time    0.00: real time    0.00
    EDDIAG:  cpu time    0.05: real time    0.06
  RMM-DIIS:  cpu time    0.21: real time    0.21
    ORTHCH:  cpu time    0.01: real time    0.01
       DOS:  cpu time    0.00: real time    0.00
    CHARGE:  cpu time    0.02: real time    0.02
    MIXING:  cpu time    0.00: real time    0.00
    --------------------------------------------
      LOOP:  cpu time    0.32: real time    0.32

 eigenvalue-minimisations  :   908
 total energy-change (2. order) : 0.1643264E-02  (-0.1849118E-03)
 number of electron   59.9999454 magnetization 
 augmentation part    31.6037182 magnetization 

 Broyden mixing:
  rms(total) = 0.39331E-01    rms(broyden)= 0.39322E-01
  rms(prec ) = 0.50641E-01
  weight for this iteration     100.00

 eigenvalues of (default mixing * dielectric matrix)
  average eigenvalue GAMMA=   0.6708
  2.2938  1.6243  0.7922  0.7922  0.6993  0.6993  0.4769  0.3117  0.1235  0.1235
  0.0566  0.0566

 Free energy of the ion-electron system (eV)
  ---------------------------------------------------
  alpha Z        PSCENC =       330.36518305
  Ewald energy   TEWEN  =      4486.17921864
  -1/2 Hartree   DENC   =    -10574.21207622
  -exchange  EXHF       =         0.00000000
  -V(xc)+E(xc)   XCENC  =       194.40961421
  PAW double counting   =      4974.56061163    -5321.91152861
  entropy T*S    EENTRO =        -0.01792865
  eigenvalues    EBANDS =      -107.85250852
  atomic energy  EATOM  =      5977.64779135
  ---------------------------------------------------
  free energy    TOTEN  =       -40.83162312 eV

  energy without entropy =      -40.81369447  energy(sigma->0) =      -40.82714096


--------------------------------------------------------------------------------------------------------




----------------------------------------- Iteration    1(  18)  ---------------------------------------


    POTLOK:  cpu time    0.02: real time    0.02
    SETDIJ:  cpu time    0.00: real time    0.00
    EDDIAG:  cpu time    0.06: real time    0.06
  RMM-DIIS:  cpu time    0.15: real time    0.15
    ORTHCH:  cpu time    0.01: real time    0.01
       DOS:  cpu time    0.00: real time    0.00
    CHARGE:  cpu time    0.02: real time    0.02
    MIXING:  cpu time    0.00: real time    0.00
    --------------------------------------------
      LOOP:  cpu time    0.27: real time    0.27

 eigenvalue-minimisations  :   622
 total energy-change (2. order) : 0.7292135E-03  (-0.4785302E-04)
 number of electron   59.9999454 magnetization 
 augmentation part    31.6000562 magnetization 

 Broyden mixing:
  rms(total) = 0.23155E-01    rms(broyden)= 0.23147E-01
  rms(prec ) = 0.31749E-01
  weight for this iteration     100.00

 eigenvalues of (default mixing * dielectric matrix)
  average eigenvalue GAMMA=   0.7362
  2.3875  1.8550  0.9955  0.9955  0.7350  0.7350  0.7125  0.4827  0.3116  0.1235
  0.1235  0.0566  0.0566

 Free energy of the ion-electron system (eV)
  ---------------------------------------------------
  alpha Z        PSCENC =       330.36518305
  Ewald energy   TEWEN  =      4486.17921864
  -1/2 Hartree   DENC   =    -10574.83448597
  -exchange  EXHF       =         0.00000000
  -V(xc)+E(xc)   XCENC  =       194.41544487
  PAW double counting   =      4975.96681711    -5323.29776528
  entropy T*S    EENTRO =        -0.01829582
  eigenvalues    EBANDS =      -107.25480186
  atomic energy  EATOM  =      5977.64779135
  ---------------------------------------------------
  free energy    TOTEN  =       -40.83089391 eV

  energy without entropy =      -40.81259809  energy(sigma->0) =      -40.82631995


--------------------------------------------------------------------------------------------------------




----------------------------------------- Iteration    1(  19)  ---------------------------------------


    POTLOK:  cpu time    0.02: real time    0.02
    SETDIJ:  cpu time    0.00: real time    0.00
    EDDIAG:  cpu time    0.05: real time    0.06
  RMM-DIIS:  cpu time    0.16: real time    0.16
    ORTHCH:  cpu time    0.01: real time    0.01
       DOS:  cpu time    0.00: real time    0.00
    --------------------------------------------
      LOOP:  cpu time    0.26: real time    0.26

 eigenvalue-minimisations  :   694
 total energy-change (2. order) : 0.4473719E-04  (-0.6535943E-04)
 number of electron   59.9999454 magnetization 
 augmentation part    31.6000562 magnetization 

 Free energy of the ion-electron system (eV)
  ---------------------------------------------------
  alpha Z        PSCENC =       330.36518305
  Ewald energy   TEWEN  =      4486.17921864
  -1/2 Hartree   DENC   =    -10575.77469715
  -exchange  EXHF       =         0.00000000
  -V(xc)+E(xc)   XCENC  =       194.42906735
  PAW double counting   =      4977.04241430    -5324.30864150
  entropy T*S    EENTRO =        -0.01809973
  eigenvalues    EBANDS =      -106.39308549
  atomic energy  EATOM  =      5977.64779135
  ---------------------------------------------------
  free energy    TOTEN  =       -40.83084917 eV

  energy without entropy =      -40.81274944  energy(sigma->0) =      -40.82632424


--------------------------------------------------------------------------------------------------------




 average (electrostatic) potential at core
  the test charge radii are     0.9791  0.6991  0.7215
  (the norm of the test charge is              1.0000)
       1 -45.2134       2 -45.4862       3 -45.4762       4 -45.4843       5 -46.0095
       6 -56.2901       7 -76.7224
 
 
 
 E-fermi :   1.6656     XC(G=0):  -9.9840     alpha+bet : -8.3093
   add alpha+bet to get absolut eigen values

 k-point   1 :       0.0000    0.0000    0.0000
  band No.  band energies     occupation 
      1     -23.1709      2.00000
      2     -10.1801      2.00000
      3      -6.7968      2.00000
      4      -6.3956      2.00000
      5      -5.4982      2.00000
      6      -4.1907      2.00000
      7      -3.2392      2.00000
      8      -2.7719      2.00000
      9      -2.2313      2.00000
     10      -2.2296      2.00000
     11      -0.5561      2.00000
     12      -0.2980      2.00000
     13      -0.2270      2.00000
     14      -0.2270      2.00000
     15      -0.1737      2.00000
     16      -0.1737      2.00000
     17      -0.1544      2.00000
     18      -0.0742      2.00000
     19      -0.0742      2.00000
     20      -0.0152      2.00000
     21      -0.0152      2.00000
     22       0.1783      2.00000
     23       0.1783      2.00000
     24       0.3200      2.00000
     25       0.4153      2.00000
     26       0.4154      2.00000
     27       0.9413      1.99998
     28       0.9413      1.99998
     29       1.0636      1.99943
     30       1.0636      1.99943
     31       1.3870      2.03915
     32       1.3870      2.03916
     33       1.6447      1.21978
     34       1.6447      1.21976
     35       1.8904     -0.08861
     36       6.3271      0.00000

 k-point   2 :       0.1111    0.0000    0.0000
  band No.  band energies     occupation 
      1     -23.0294      2.00000
      2      -9.9298      2.00000
      3      -6.5178      2.00000
      4      -6.1253      2.00000
      5      -5.1646      2.00000
      6      -3.8741      2.00000
      7      -2.9571      2.00000
      8      -2.7888      2.00000
      9      -2.4663      2.00000
     10      -2.3664      2.00000
     11      -0.7248      2.00000
     12      -0.5061      2.00000
     13      -0.4342      2.00000
     14      -0.3378      2.00000
     15      -0.2381      2.00000
     16      -0.1791      2.00000
     17      -0.0944      2.00000
     18      -0.0509      2.00000
     19      -0.0198      2.00000
     20       0.0618      2.00000
     21       0.0896      2.00000
     22       0.1216      2.00000
     23       0.1395      2.00000
     24       0.3227      2.00000
     25       0.3975      2.00000
     26       0.4293      2.00000
     27       0.8156      2.00000
     28       0.8633      2.00000
     29       0.9345      1.99998
     30       1.0847      1.99908
     31       1.2673      1.99018
     32       1.3923      2.04396
     33       1.6508      1.15605
     34       1.9728     -0.01692
     35       3.1190      0.00000
     36       6.8439      0.00000

 k-point   3 :       0.2222    0.0000    0.0000
  band No.  band energies     occupation 
      1     -22.6525      2.00000
      2      -9.2345      2.00000
      3      -6.2481      2.00000
      4      -5.0938      2.00000
      5      -4.3494      2.00000
      6      -3.8161      2.00000
      7      -2.9793      2.00000
      8      -2.7051      2.00000
      9      -2.2656      2.00000
     10      -1.8188      2.00000
     11      -1.1872      2.00000
     12      -0.9563      2.00000
     13      -0.7410      2.00000
     14      -0.6257      2.00000
     15      -0.5674      2.00000
     16      -0.3554      2.00000
     17      -0.1463      2.00000
     18      -0.0597      2.00000
     19      -0.0549      2.00000
     20       0.1306      2.00000
     21       0.2572      2.00000
     22       0.3168      2.00000
     23       0.3922      2.00000
     24       0.5175      2.00000
     25       0.6292      2.00000
     26       0.6441      2.00000
     27       0.7512      2.00000
     28       0.9249      1.99999
     29       0.9893      1.99992
     30       1.1333      1.99758
     31       1.3966      2.04788
     32       1.6632      1.02569
     33       1.7093      0.55460
     34       2.9700      0.00000
     35       4.7550      0.00000
     36       5.3726      0.00000

 k-point   4 :       0.3333    0.0000    0.0000
  band No.  band energies     occupation 
      1     -22.1786      2.00000
      2      -8.3041      2.00000
      3      -6.6071      2.00000
      4      -4.6892      2.00000
      5      -3.5044      2.00000
      6      -3.0611      2.00000
      7      -2.9539      2.00000
      8      -2.3704      2.00000
      9      -1.9592      2.00000
     10      -1.6917      2.00000
     11      -1.5485      2.00000
     12      -1.3336      2.00000
     13      -1.0138      2.00000
     14      -0.6855      2.00000
     15      -0.4469      2.00000
     16      -0.3280      2.00000
     17      -0.1828      2.00000
     18      -0.0752      2.00000
     19       0.0649      2.00000
     20       0.1871      2.00000
     21       0.4228      2.00000
     22       0.6334      2.00000
     23       0.6818      2.00000
     24       0.9799      1.99994
     25       1.1154      1.99827
     26       1.2078      1.99284
     27       1.2359      1.99093
     28       1.3138      1.99625
     29       1.3407      2.00655
     30       1.3998      2.05092
     31       1.4781      2.10295
     32       1.6798      0.85108
     33       2.2684      0.00056
     34       3.6340      0.00000
     35       4.2341      0.00000
     36       6.8375      0.00000

 k-point   5 :       0.4444    0.0000    0.0000
  band No.  band energies     occupation 
      1     -21.8385      2.00000
      2      -7.7710      2.00000
      3      -6.9568      2.00000
      4      -4.6337      2.00000
      5      -3.2883      2.00000
      6      -2.6178      2.00000
      7      -2.4578      2.00000
      8      -2.2642      2.00000
      9      -2.0548      2.00000
     10      -1.8561      2.00000
     11      -1.7461      2.00000
     12      -1.6470      2.00000
     13      -1.2945      2.00000
     14      -0.6964      2.00000
     15      -0.2830      2.00000
     16      -0.2539      2.00000
     17      -0.1123      2.00000
     18       0.1002      2.00000
     19       0.1902      2.00000
     20       0.4350      2.00000
     21       0.6257      2.00000
     22       1.1465      1.99695
     23       1.1954      1.99377
     24       1.4439      2.09086
     25       1.4570      2.09889
     26       1.5713      1.84438
     27       1.6168      1.49317
     28       1.6651      1.00584
     29       1.7305      0.36720
     30       1.8306     -0.08888
     31       1.8913     -0.08791
     32       2.4150      0.00001
     33       3.0401      0.00000
     34       3.7550      0.00000
     35       5.1104      0.00000
     36       6.0496      0.00000

 k-point   6 :       0.1111    0.1111    0.0000
  band No.  band energies     occupation 
      1     -22.7703      2.00000
      2      -9.4559      2.00000
      3      -6.2721      2.00000
      4      -5.4358      2.00000
      5      -4.5377      2.00000
      6      -3.6243      2.00000
      7      -3.1759      2.00000
      8      -2.6980      2.00000
      9      -2.4310      2.00000
     10      -1.9705      2.00000
     11      -0.9998      2.00000
     12      -0.8373      2.00000
     13      -0.7049      2.00000
     14      -0.5631      2.00000
     15      -0.4809      2.00000
     16      -0.4496      2.00000
     17      -0.1686      2.00000
     18      -0.0916      2.00000
     19      -0.0429      2.00000
     20       0.1084      2.00000
     21       0.2106      2.00000
     22       0.2905      2.00000
     23       0.4203      2.00000
     24       0.4409      2.00000
     25       0.5665      2.00000
     26       0.6340      2.00000
     27       0.6557      2.00000
     28       0.7759      2.00000
     29       1.0368      1.99970
     30       1.2029      1.99321
     31       1.2318      1.99117
     32       1.5621      1.89673
     33       1.7056      0.59051
     34       2.7024      0.00000
     35       4.3066      0.00000
     36       5.9585      0.00000

 k-point   7 :       0.2222    0.1111    0.0000
  band No.  band energies     occupation 
      1     -22.3411      2.00000
      2      -8.6267      2.00000
      3      -6.3316      2.00000
      4      -4.5295      2.00000
      5      -3.9812      2.00000
      6      -3.2688      2.00000
      7      -3.2199      2.00000
      8      -2.4090      2.00000
      9      -1.8522      2.00000
     10      -1.5267      2.00000
     11      -1.3289      2.00000
     12      -1.0946      2.00000
     13      -0.9094      2.00000
     14      -0.8455      2.00000
     15      -0.7323      2.00000
     16      -0.5339      2.00000
     17      -0.2664      2.00000
     18      -0.2067      2.00000
     19      -0.1508      2.00000
     20      -0.0269      2.00000
     21       0.1989      2.00000
     22       0.4111      2.00000
     23       0.6357      2.00000
     24       0.7022      2.00000
     25       0.8159      2.00000
     26       1.0111      1.99985
     27       1.1263      1.99787
     28       1.2161      1.99223
     29       1.3582      2.01667
     30       1.4132      2.06374
     31       1.5130      2.07032
     32       1.5693      1.85642
     33       2.2153      0.00175
     34       3.7844      0.00000
     35       4.4610      0.00000
     36       6.4706      0.00000

 k-point   8 :       0.3333    0.1111    0.0000
  band No.  band energies     occupation 
      1     -21.9255      2.00000
      2      -7.7922      2.00000
      3      -6.7833      2.00000
      4      -4.6339      2.00000
      5      -3.6466      2.00000
      6      -2.6851      2.00000
      7      -2.4342      2.00000
      8      -2.1461      2.00000
      9      -1.8330      2.00000
     10      -1.7072      2.00000
     11      -1.5371      2.00000
     12      -1.3548      2.00000
     13      -1.1305      2.00000
     14      -0.7628      2.00000
     15      -0.4862      2.00000
     16      -0.4171      2.00000
     17      -0.2364      2.00000
     18      -0.1766      2.00000
     19       0.0018      2.00000
     20       0.2353      2.00000
     21       0.3753      2.00000
     22       0.6276      2.00000
     23       0.7496      2.00000
     24       1.0773      1.99922
     25       1.1957      1.99375
     26       1.3157      1.99679
     27       1.4266      2.07639
     28       1.5392      1.99946
     29       1.6540      1.12252
     30       1.7222      0.43753
     31       2.1674      0.00404
     32       2.4575      0.00000
     33       2.9437      0.00000
     34       3.6823      0.00000
     35       5.2695      0.00000
     36       5.9743      0.00000

 k-point   9 :       0.4444    0.1111    0.0000
  band No.  band energies     occupation 
      1     -21.7498      2.00000
      2      -7.5871      2.00000
      3      -6.8445      2.00000
      4      -4.6258      2.00000
      5      -3.7685      2.00000
      6      -2.4113      2.00000
      7      -2.2351      2.00000
      8      -2.0739      2.00000
      9      -1.9090      2.00000
     10      -1.6907      2.00000
     11      -1.6408      2.00000
     12      -1.5779      2.00000
     13      -1.2566      2.00000
     14      -0.7536      2.00000
     15      -0.4939      2.00000
     16      -0.3264      2.00000
     17      -0.1887      2.00000
     18       0.0110      2.00000
     19       0.1667      2.00000
     20       0.1960      2.00000
     21       0.6798      2.00000
     22       0.7169      2.00000
     23       1.0610      1.99947
     24       1.2100      1.99268
     25       1.4675      2.10258
     26       1.4953      2.09438
     27       1.5967      1.66638
     28       1.6147      1.51252
     29       1.7305      0.36729
     30       1.9003     -0.08037
     31       2.0143      0.00285
     32       3.5666      0.00000
     33       4.3034      0.00000
     34       4.8526      0.00000
     35       5.2214      0.00000
     36       5.7251      0.00000

 k-point  10 :       0.2222    0.2222    0.0000
  band No.  band energies     occupation 
      1     -21.9611      2.00000
      2      -7.8265      2.00000
      3      -6.5229      2.00000
      4      -4.4471      2.00000
      5      -4.2221      2.00000
      6      -2.6893      2.00000
      7      -2.3314      2.00000
      8      -1.9203      2.00000
      9      -1.6409      2.00000
     10      -1.3847      2.00000
     11      -1.2699      2.00000
     12      -1.1371      2.00000
     13      -1.0476      2.00000
     14      -0.9455      2.00000
     15      -0.7579      2.00000
     16      -0.5862      2.00000
     17      -0.5076      2.00000
     18      -0.3652      2.00000
     19      -0.3186      2.00000
     20      -0.1368      2.00000
     21       0.2500      2.00000
     22       0.4164      2.00000
     23       0.5894      2.00000
     24       0.8534      2.00000
     25       0.9270      1.99999
     26       1.1128      1.99836
     27       1.4422      2.08961
     28       1.5649      1.88149
     29       1.6468      1.19827
     30       1.7314      0.35940
     31       2.3592      0.00005
     32       2.5694      0.00000
     33       3.2848      0.00000
     34       3.8985      0.00000
     35       5.2080      0.00000
     36       5.3606      0.00000

 k-point  11 :       0.3333    0.2222    0.0000
  band No.  band energies     occupation 
      1     -21.6970      2.00000
      2      -7.1806      2.00000
      3      -6.6158      2.00000
      4      -5.0517      2.00000
      5      -4.2866      2.00000
      6      -2.0502      2.00000
      7      -1.8420      2.00000
      8      -1.7347      2.00000
      9      -1.5284      2.00000
     10      -1.4749      2.00000
     11      -1.2895      2.00000
     12      -1.1960      2.00000
     13      -1.0250      2.00000
     14      -0.9015      2.00000
     15      -0.8484      2.00000
     16      -0.6357      2.00000
     17      -0.6019      2.00000
     18      -0.3507      2.00000
     19      -0.1161      2.00000
     20       0.1504      2.00000
     21       0.2903      2.00000
     22       0.3990      2.00000
     23       0.6705      2.00000
     24       0.9276      1.99999
     25       1.1193      1.99813
     26       1.2716      1.99029
     27       1.5114      2.07321
     28       1.6006      1.63448
     29       1.7159      0.49316
     30       1.8636     -0.10261
     31       2.5696      0.00000
     32       4.1761      0.00000
     33       4.4237      0.00000
     34       4.7501      0.00000
     35       5.7338      0.00000
     36       6.9973      0.00000

 k-point  12 :       0.3333    0.3333    0.0000
  band No.  band energies     occupation 
      1     -21.6050      2.00000
      2      -6.4989      2.00000
      3      -6.2463      2.00000
      4      -6.2452      2.00000
      5      -4.2619      2.00000
      6      -1.6555      2.00000
      7      -1.5740      2.00000
      8      -1.3917      2.00000
      9      -1.3476      2.00000
     10      -1.3082      2.00000
     11      -1.2918      2.00000
     12      -1.1995      2.00000
     13      -1.0954      2.00000
     14      -0.9822      2.00000
     15      -0.9321      2.00000
     16      -0.7174      2.00000
     17      -0.5874      2.00000
     18      -0.4873      2.00000
     19      -0.3680      2.00000
     20       0.0281      2.00000
     21       0.1457      2.00000
     22       0.5356      2.00000
     23       0.7710      2.00000
     24       0.7904      2.00000
     25       0.9689      1.99995
     26       1.3956      2.04693
     27       1.5058      2.08220
     28       1.5291      2.03246
     29       1.5517      1.94844
     30       1.8863     -0.09167
     31       3.1287      0.00000
     32       3.1617      0.00000
     33       6.7490      0.00000
     34       6.8385      0.00000
     35       7.0713      0.00000
     36       7.3058      0.00000


--------------------------------------------------------------------------------------------------------


 soft charge-density along one line, spin component           1
         0         1         2         3         4         5         6         7         8         9
 total charge-density along one line
 
 pseudopotential strength for first ion, spin component:           1
 -7.026   0.000  -0.000   0.012   0.000  -0.045  -0.000   0.000
  0.000  -6.869  -0.000  -0.000   0.012  -0.000  -0.111   0.000
 -0.000  -0.000  -6.849   0.000   0.000   0.000   0.000  -0.120
  0.012  -0.000   0.000  -6.869  -0.000  -0.005   0.000  -0.000
  0.000   0.012   0.000  -0.000  -7.026  -0.000  -0.005  -0.000
 -0.045  -0.000   0.000  -0.005  -0.000   1.330   0.000  -0.000
 -0.000  -0.111   0.000   0.000  -0.005   0.000   1.358  -0.000
  0.000   0.000  -0.120  -0.000  -0.000  -0.000  -0.000   1.362
 -0.005   0.000  -0.000  -0.111   0.000   0.002  -0.000   0.000
 -0.000  -0.005  -0.000   0.000  -0.045   0.000   0.002   0.000
  0.000   0.000  -0.024  -0.000  -0.000   0.000   0.000   0.009
 -0.000  -0.000   0.002   0.000   0.000   0.000   0.000  -0.001
  0.000  -0.009  -0.000   0.000  -0.000  -0.000   0.005  -0.000
  0.000  -0.000  -0.006   0.000  -0.000   0.000  -0.000   0.003
 -0.000   0.000   0.000  -0.009   0.000   0.000   0.000   0.000
 -0.000   0.007   0.000  -0.000   0.000   0.000  -0.003  -0.000
 -0.000   0.000   0.006  -0.000   0.000   0.000  -0.000  -0.003
  0.000  -0.000  -0.000   0.007  -0.000  -0.000   0.000   0.000
 total augmentation occupancy for first ion, spin component:           1
  1.743   0.000  -0.000   0.027   0.000   0.075   0.000  -0.000  -0.020  -0.000   0.000  -0.000   0.000   0.000  -0.008   0.000
  0.000   1.819  -0.000  -0.000   0.027   0.000   0.001   0.000   0.000  -0.021  -0.000   0.000  -0.007   0.000  -0.000  -0.007
 -0.000  -0.000   1.779   0.000  -0.000  -0.000   0.000   0.033   0.000  -0.000  -0.023   0.039   0.000   0.073   0.000  -0.000
  0.027   0.000   0.000   1.819  -0.000  -0.021   0.000  -0.000   0.001   0.000   0.000   0.000   0.000   0.000  -0.007   0.000
  0.000   0.027  -0.000  -0.000   1.743  -0.000  -0.020  -0.000   0.000   0.075   0.000  -0.000  -0.008  -0.000   0.000   0.001
  0.075   0.000  -0.000  -0.021   0.000   0.075  -0.000  -0.000   0.001   0.000  -0.000   0.000   0.000   0.000  -0.006   0.000
  0.000   0.001   0.000   0.000  -0.020   0.000   0.063  -0.000  -0.000   0.001   0.000   0.000   0.039   0.000   0.000  -0.004
 -0.000   0.000   0.033  -0.000  -0.000  -0.000  -0.000   0.077   0.000  -0.000  -0.097   0.019   0.000   0.048   0.000  -0.000
 -0.020   0.000  -0.000   0.001   0.000   0.001  -0.000  -0.000   0.063   0.000   0.000   0.000   0.000   0.000   0.039  -0.000
 -0.000  -0.021  -0.000   0.000   0.075   0.000   0.001  -0.000  -0.000   0.075   0.000  -0.000  -0.006  -0.000  -0.000   0.000
  0.000   0.000  -0.023   0.000   0.000   0.000   0.000  -0.097   0.000   0.000   1.250  -0.313   0.000   0.090   0.000   0.000
 -0.000   0.000   0.039   0.000  -0.000   0.000  -0.000   0.019   0.000  -0.000  -0.313   0.103   0.000  -0.046   0.000   0.000
  0.000  -0.007   0.000  -0.000  -0.008  -0.000   0.039   0.000  -0.000  -0.006   0.000   0.000   0.188   0.000   0.000  -0.013
  0.000   0.000   0.073   0.000  -0.000   0.000   0.000   0.048   0.000  -0.000   0.090  -0.046   0.000   0.106   0.000   0.000
 -0.008   0.000   0.000  -0.007  -0.000  -0.006   0.000   0.000   0.039  -0.000   0.000   0.000   0.000  -0.000   0.188  -0.000
  0.000  -0.007  -0.000   0.000   0.001   0.000  -0.004  -0.000   0.000   0.000   0.000  -0.000  -0.013   0.000   0.000   0.001
  0.000   0.000  -0.012   0.000   0.000   0.000   0.000  -0.003   0.000   0.000  -0.015   0.006   0.000  -0.008   0.000   0.000
  0.001   0.000   0.000  -0.007   0.000   0.000   0.000   0.000  -0.004  -0.000   0.000   0.000   0.000   0.000  -0.013   0.000


------------------------ aborting loop because EDIFF is reached ----------------------------------------




--------------------------------------------------------------------------------------------------------



  FREE ENERGIE OF THE ION-ELECTRON SYSTEM (eV)
  ---------------------------------------------------
  free  energy   TOTEN  =       -40.830849 eV

  energy  without entropy=      -40.812749  energy(sigma->0) =      -40.826324
 
[...]
      1     -22.6571      2.00000
      2      -9.4405      2.00000
      3      -6.2150      2.00000
      4      -5.4241      2.00000
      5      -4.5170      2.00000
      6      -3.5648      2.00000
      7      -3.1511      2.00000
      8      -2.6057      2.00000
      9      -2.4154      2.00000
     10      -1.9596      2.00000
     11      -0.9900      2.00000
     12      -0.8232      2.00000
     13      -0.6920      2.00000
     14      -0.5478      2.00000
     15      -0.4673      2.00000
     16      -0.4352      2.00000
     17      -0.1620      2.00000
     18      -0.0845      2.00000
     19      -0.0235      2.00000
     20       0.1187      2.00000
     21       0.2242      2.00000
     22       0.3071      2.00000
     23       0.4326      2.00000
     24       0.4536      2.00000
     25       0.5737      2.00000
     26       0.6418      2.00000
     27       0.6619      2.00000
     28       0.7821      2.00000
     29       1.0475      1.99970
     30       1.2127      1.99323
     31       1.2382      1.99140
     32       1.5702      1.90722
     33       1.7149      0.59817
     34       2.7132      0.00000
     35       4.3164      0.00000
     36       5.9548      0.00000

 k-point   7 :       0.2222    0.1111    0.0000
  band No.  band energies     occupation 
      1     -22.2257      2.00000
      2      -8.6076      2.00000
      3      -6.2585      2.00000
      4      -4.4805      2.00000
      5      -3.9675      2.00000
      6      -3.2409      2.00000
      7      -3.1413      2.00000
      8      -2.3944      2.00000
      9      -1.8366      2.00000
     10      -1.5129      2.00000
     11      -1.3188      2.00000
     12      -1.0849      2.00000
     13      -0.8923      2.00000
     14      -0.8335      2.00000
     15      -0.7202      2.00000
     16      -0.5222      2.00000
     17      -0.2573      2.00000
     18      -0.1882      2.00000
     19      -0.1451      2.00000
     20      -0.0175      2.00000
     21       0.2095      2.00000
     22       0.4197      2.00000
     23       0.6467      2.00000
     24       0.7126      2.00000
     25       0.8286      2.00000
     26       1.0236      1.99984
     27       1.1346      1.99794
     28       1.2261      1.99224
     29       1.3668      2.01574
     30       1.4244      2.06482
     31       1.5210      2.07408
     32       1.5782      1.86333
     33       2.2271      0.00169
     34       3.7951      0.00000
     35       4.4675      0.00000
     36       5.9467      0.00000

 k-point   8 :       0.3333    0.1111    0.0000
  band No.  band energies     occupation 
      1     -21.8078      2.00000
      2      -7.7522      2.00000
      3      -6.7215      2.00000
      4      -4.5915      2.00000
      5      -3.5600      2.00000
      6      -2.6738      2.00000
      7      -2.4195      2.00000
      8      -2.1338      2.00000
      9      -1.8146      2.00000
     10      -1.6962      2.00000
     11      -1.5263      2.00000
     12      -1.3442      2.00000
     13      -1.1229      2.00000
     14      -0.7508      2.00000
     15      -0.4711      2.00000
     16      -0.4000      2.00000
     17      -0.2262      2.00000
     18      -0.1647      2.00000
     19       0.0122      2.00000
     20       0.2457      2.00000
     21       0.3836      2.00000
     22       0.6342      2.00000
     23       0.7566      2.00000
     24       1.0869      1.99923
     25       1.2089      1.99352
     26       1.3232      1.99608
     27       1.4396      2.07903
     28       1.5503      1.99574
     29       1.6663      1.09910
     30       1.7325      0.43569
     31       2.1803      0.00387
     32       2.4683      0.00000
     33       2.9540      0.00000
     34       3.6951      0.00000
     35       5.2801      0.00000
     36       5.9752      0.00000

 k-point   9 :       0.4444    0.1111    0.0000
  band No.  band energies     occupation 
      1     -21.6310      2.00000
      2      -7.5079      2.00000
      3      -6.8209      2.00000
      4      -4.5834      2.00000
      5      -3.6863      2.00000
      6      -2.3947      2.00000
      7      -2.2250      2.00000
      8      -2.0613      2.00000
      9      -1.8890      2.00000
     10      -1.6798      2.00000
     11      -1.6293      2.00000
     12      -1.5714      2.00000
     13      -1.2492      2.00000
     14      -0.7414      2.00000
     15      -0.4781      2.00000
     16      -0.3136      2.00000
     17      -0.1760      2.00000
     18       0.0201      2.00000
     19       0.1758      2.00000
     20       0.2086      2.00000
     21       0.6916      2.00000
     22       0.7229      2.00000
     23       1.0677      1.99951
     24       1.2192      1.99274
     25       1.4780      2.10266
     26       1.5111      2.08843
     27       1.6073      1.66201
     28       1.6218      1.53920
     29       1.7401      0.37099
     30       1.9187     -0.07279
     31       2.0264      0.00341
     32       3.5769      0.00000
     33       4.3151      0.00000
     34       4.8654      0.00000
     35       5.2314      0.00000
     36       5.7209      0.00000

 k-point  10 :       0.2222    0.2222    0.0000
  band No.  band energies     occupation 
      1     -21.8436      2.00000
      2      -7.7965      2.00000
      3      -6.4515      2.00000
      4      -4.4060      2.00000
      5      -4.1343      2.00000
      6      -2.6789      2.00000
      7      -2.3154      2.00000
      8      -1.9079      2.00000
      9      -1.6305      2.00000
     10      -1.3675      2.00000
     11      -1.2558      2.00000
     12      -1.1250      2.00000
     13      -1.0322      2.00000
     14      -0.9318      2.00000
     15      -0.7501      2.00000
     16      -0.5753      2.00000
     17      -0.4893      2.00000
     18      -0.3569      2.00000
     19      -0.3083      2.00000
     20      -0.1328      2.00000
     21       0.2561      2.00000
     22       0.4264      2.00000
     23       0.6011      2.00000
     24       0.8667      2.00000
     25       0.9362      1.99999
     26       1.1181      1.99850
     27       1.4525      2.08978
     28       1.5782      1.86351
     29       1.6587      1.17912
     30       1.7426      0.35019
     31       2.3727      0.00005
     32       2.5784      0.00000
     33       3.2953      0.00000
     34       3.9096      0.00000
     35       5.2127      0.00000
     36       5.3692      0.00000

 k-point  11 :       0.3333    0.2222    0.0000
  band No.  band energies     occupation 
      1     -21.5779      2.00000
      2      -7.1178      2.00000
      3      -6.5733      2.00000
      4      -4.9705      2.00000
      5      -4.2485      2.00000
      6      -2.0310      2.00000
      7      -1.8326      2.00000
      8      -1.7235      2.00000
      9      -1.5117      2.00000
     10      -1.4654      2.00000
     11      -1.2776      2.00000
     12      -1.1847      2.00000
     13      -1.0128      2.00000
     14      -0.8889      2.00000
     15      -0.8366      2.00000
     16      -0.6218      2.00000
     17      -0.5880      2.00000
     18      -0.3404      2.00000
     19      -0.1050      2.00000
     20       0.1556      2.00000
     21       0.2955      2.00000
     22       0.4098      2.00000
     23       0.6790      2.00000
     24       0.9405      1.99999
     25       1.1280      1.99818
     26       1.2821      1.99031
     27       1.5203      2.07531
     28       1.6104      1.63668
     29       1.7265      0.48872
     30       1.8830     -0.09954
     31       2.5810      0.00000
     32       4.1874      0.00000
     33       4.4296      0.00000
     34       4.7602      0.00000
     35       5.7465      0.00000
     36       7.0077      0.00000

 k-point  12 :       0.3333    0.3333    0.0000
  band No.  band energies     occupation 
      1     -21.4854      2.00000
      2      -6.4719      2.00000
      3      -6.1640      2.00000
      4      -6.1629      2.00000
      5      -4.2316      2.00000
      6      -1.6305      2.00000
      7      -1.5563      2.00000
      8      -1.3848      2.00000
      9      -1.3418      2.00000
     10      -1.2955      2.00000
     11      -1.2861      2.00000
     12      -1.1913      2.00000
     13      -1.0805      2.00000
     14      -0.9639      2.00000
     15      -0.9209      2.00000
     16      -0.6977      2.00000
     17      -0.5749      2.00000
     18      -0.4768      2.00000
     19      -0.3593      2.00000
     20       0.0311      2.00000
     21       0.1475      2.00000
     22       0.5418      2.00000
     23       0.7836      2.00000
     24       0.8096      2.00000
     25       0.9751      1.99996
     26       1.4049      2.04626
     27       1.5195      2.07661
     28       1.5396      2.03113
     29       1.5561      1.97321
     30       1.9079     -0.08248
     31       3.1378      0.00000
     32       3.1700      0.00000
     33       6.7604      0.00000
     34       6.8500      0.00000
     35       7.0815      0.00000
     36       7.3192      0.00000


--------------------------------------------------------------------------------------------------------


 soft charge-density along one line, spin component           1
         0         1         2         3         4         5         6         7         8         9
 total charge-density along one line
 
 pseudopotential strength for first ion, spin component:           1
 -7.027   0.000  -0.000   0.012   0.000  -0.045  -0.000   0.000
  0.000  -6.872  -0.000  -0.000   0.012  -0.000  -0.110   0.000
 -0.000  -0.000  -6.852   0.000   0.000   0.000   0.000  -0.119
  0.012  -0.000   0.000  -6.872   0.000  -0.005   0.000  -0.000
  0.000   0.012   0.000   0.000  -7.027  -0.000  -0.005  -0.000
 -0.045  -0.000   0.000  -0.005  -0.000   1.330   0.000  -0.000
 -0.000  -0.110   0.000   0.000  -0.005   0.000   1.358  -0.000
  0.000   0.000  -0.119  -0.000  -0.000  -0.000  -0.000   1.361
 -0.005   0.000  -0.000  -0.110  -0.000   0.002  -0.000   0.000
 -0.000  -0.005  -0.000  -0.000  -0.045   0.000   0.002   0.000
  0.000   0.000  -0.023  -0.000  -0.000   0.000   0.000   0.009
 -0.000  -0.000   0.002   0.000   0.000   0.000   0.000  -0.001
  0.000  -0.009   0.000   0.000  -0.000  -0.000   0.005  -0.000
  0.000  -0.000  -0.006   0.000  -0.000   0.000  -0.000   0.003
 -0.000   0.000  -0.000  -0.009   0.000   0.000   0.000   0.000
 -0.000   0.007   0.000  -0.000   0.000   0.000  -0.003  -0.000
 -0.000   0.000   0.006  -0.000   0.000   0.000  -0.000  -0.003
  0.000  -0.000  -0.000   0.007  -0.000  -0.000   0.000   0.000
 total augmentation occupancy for first ion, spin component:           1
  1.741   0.000  -0.000   0.027   0.000   0.076   0.000  -0.000  -0.020  -0.000   0.000   0.000   0.000   0.000  -0.008   0.000
  0.000   1.818  -0.000   0.000   0.027   0.000   0.001   0.000   0.000  -0.021  -0.000   0.000  -0.007   0.000  -0.000  -0.006
 -0.000  -0.000   1.779   0.000  -0.000   0.000   0.000   0.033  -0.000  -0.000  -0.022   0.038   0.000   0.073   0.000  -0.000
  0.027  -0.000   0.000   1.818  -0.000  -0.021   0.000   0.000   0.001   0.000   0.000   0.000   0.000   0.000  -0.007   0.000
  0.000   0.027  -0.000  -0.000   1.741  -0.000  -0.020  -0.000   0.000   0.076   0.000  -0.000  -0.008  -0.000   0.000   0.001
  0.076   0.000  -0.000  -0.021   0.000   0.075   0.000  -0.000   0.001   0.000  -0.000  -0.000   0.000   0.000  -0.006   0.000
  0.000   0.001   0.000   0.000  -0.020   0.000   0.063  -0.000  -0.000   0.001  -0.000   0.000   0.039   0.000   0.000  -0.004
 -0.000   0.000   0.033   0.000  -0.000  -0.000  -0.000   0.077   0.000  -0.000  -0.097   0.019   0.000   0.048  -0.000  -0.000
 -0.020   0.000  -0.000   0.001   0.000   0.001   0.000   0.000   0.063  -0.000   0.000   0.000   0.000   0.000   0.039   0.000
  0.000  -0.021  -0.000   0.000   0.076   0.000   0.001  -0.000  -0.000   0.075   0.000  -0.000  -0.006  -0.000   0.000   0.000
  0.000   0.000  -0.022   0.000   0.000  -0.000   0.000  -0.097   0.000   0.000   1.250  -0.313   0.000   0.090   0.000   0.000
  0.000   0.000   0.038   0.000  -0.000  -0.000   0.000   0.019   0.000  -0.000  -0.313   0.103   0.000  -0.046   0.000   0.000
  0.000  -0.007   0.000   0.000  -0.008  -0.000   0.039   0.000   0.000  -0.006  -0.000   0.000   0.188   0.000   0.000  -0.013
  0.000   0.000   0.073   0.000  -0.000   0.000   0.000   0.048   0.000  -0.000   0.090  -0.046   0.000   0.106  -0.000  -0.000
 -0.008  -0.000   0.000  -0.007   0.000  -0.006   0.000  -0.000   0.039  -0.000   0.000   0.000   0.000   0.000   0.188   0.000
  0.000  -0.006  -0.000  -0.000   0.001   0.000  -0.004  -0.000   0.000   0.000   0.000   0.000  -0.013   0.000  -0.000   0.001
  0.000  -0.000  -0.012   0.000   0.000   0.000   0.000  -0.003  -0.000   0.000  -0.015   0.006   0.000  -0.008   0.000  -0.000
  0.001   0.000   0.000  -0.006   0.000   0.000   0.000   0.000  -0.004   0.000   0.000   0.000   0.000   0.000  -0.013   0.000


------------------------ aborting loop because EDIFF is reached ----------------------------------------




--------------------------------------------------------------------------------------------------------



  FREE ENERGIE OF THE ION-ELECTRON SYSTEM (eV)
  ---------------------------------------------------
  free  energy   TOTEN  =       -40.833317 eV

  energy  without entropy=      -40.815082  energy(sigma->0) =      -40.828758
 
    CHARGE:  cpu time    0.02: real time    0.02
    FORLOC:  cpu time    0.00: real time    0.00
    FORNL :  cpu time    0.17: real time    0.17
    STRESS:  cpu time    0.33: real time    0.33
    FORCOR:  cpu time    0.02: real time    0.02
    FORHAR:  cpu time    0.01: real time    0.01
    MIXING:  cpu time    0.00: real time    0.00

  FORCE on cell =-STRESS in cart. coord.  units (eV):
  Direction    XX          YY          ZZ          XY          YZ          ZX
  --------------------------------------------------------------------------------------
  Alpha Z   330.36518   330.36518   330.36518
  Ewald    7801.98113  7801.98122-11120.32840    -0.00000     0.00002     0.00000
  Hartree  9702.42449  9702.42450 -8825.99578    -0.00000     0.00001     0.00000
  E(xc)    -320.93878  -320.93864  -320.10788     0.00012     0.00002     0.00001
  Local  -18186.44161-18186.44358 19303.43785    -0.00167    -0.00011    -0.00005
  n-local  -187.49239  -186.70689  -193.50028    -7.42910    -0.16369     1.47960
  augment   268.28129   268.28263   263.93117     0.00112     0.00009    -0.00001
  Kinetic   597.81997   590.42539   560.81708     9.93580     0.36597     0.85945
  Fock        0.00000     0.00000     0.00000     0.00000     0.00000     0.00000
  -------------------------------------------------------------------------------------
  Total       2.69454     2.69454    -1.38106     0.00000     0.00000    -0.00000
  in kB      43.62029    43.62028   -22.35720     0.00000     0.00000    -0.00000
  external pressure =       21.63 kB  Pullay stress =        0.00 kB


 VOLUME and BASIS-vectors are now :
 -----------------------------------------------------------------------------
  energy-cutoff  :      400.00
  volume of cell :       98.97
      direct lattice vectors                 reciprocal lattice vectors
     2.496086933  0.000000000  0.000000000     0.400627072  0.231302161  0.000000000
    -1.248043467  2.161674572  0.000000000     0.000000000  0.462604322  0.000000000
     0.000000000  0.000000000 18.342417972     0.000000000  0.000000000  0.054518439

  length of vectors
     2.496086933  2.496086827 18.342417972     0.462604302  0.462604322  0.054518439


 FORCES acting on ions
    electron-ion (+dipol)            ewald-force                    non-local-force                 convergence-correction
 -----------------------------------------------------------------------------------------------
   0.575E-05 0.103E-04 0.271E+04   -.234E-06 -.213E-05 -.271E+04   0.867E-18 -.347E-17 -.170E+01   0.516E-08 -.101E-07 -.231E+00
   -.121E-05 -.980E-07 0.160E+04   0.704E-06 -.395E-06 -.160E+04   0.173E-17 0.000E+00 -.215E+00   0.235E-08 -.372E-11 -.156E+01
   -.660E-05 -.917E-05 0.486E+03   -.709E-06 0.377E-06 -.484E+03   0.434E-17 0.000E+00 0.224E-01   -.503E-07 0.178E-07 -.159E+01
   -.143E-04 -.254E-04 -.639E+03   0.704E-08 0.450E-07 0.639E+03   -.867E-17 0.694E-17 -.294E+00   -.122E-05 0.702E-06 -.297E+00
   -.157E-04 -.351E-04 -.172E+04   0.231E-06 0.209E-05 0.171E+04   0.000E+00 0.000E+00 0.483E+01   0.212E-07 0.191E-07 0.700E+00
   -.366E-03 -.646E-03 -.816E+03   0.584E-09 0.912E-08 0.799E+03   -.347E-17 0.000E+00 0.171E+02   -.167E-07 -.266E-07 0.304E+00
   0.306E-03 0.492E-03 -.158E+04   0.293E-10 0.618E-09 0.165E+04   0.867E-18 0.173E-17 -.632E+02   -.166E-07 -.250E-07 0.466E+00
 -----------------------------------------------------------------------------------------------
   -.920E-04 -.214E-03 0.457E+02   0.172E-12 0.426E-13 -.455E-12   -.434E-17 0.520E-17 -.435E+02   -.128E-05 0.678E-06 -.221E+01
 
 
 POSITION                                       TOTAL-FORCE (eV/Angst)
 -----------------------------------------------------------------------------------
      0.00000      0.00000      0.00000         0.000000      0.000000      0.176123
     -0.00000      1.44112      2.03805         0.000000      0.000000     -0.104622
      1.24804      0.72056      4.07609         0.000000     -0.000000     -0.034271
      0.00000      0.00000      6.10852        -0.000000      0.000000     -0.086237
     -0.00000      1.44112      8.15355        -0.000000      0.000000      0.008952
     -0.00000      1.44112      9.90864        -0.000000      0.000000      0.016953
     -0.00000      1.44112     11.06334         0.000000      0.000000      0.023102
 -----------------------------------------------------------------------------------
    total drift:                               -0.000093     -0.000213      0.016480
 d Force = 0.2218784E-03[ 0.193E-03, 0.251E-03]  d Energy = 0.1343359E-03 0.875E-04
 d Force = 0.2263414E+00[ 0.224E+00, 0.229E+00]  d Ewald  = 0.2263415E+00-0.841E-07


--------------------------------------------------------------------------------------------------------


    POTLOK:  cpu time    0.02: real time    0.02


--------------------------------------------------------------------------------------------------------


 Quasi-Newton relaxation of ions (Broydens 2nd method)
  g(Force)  = 0.161E-03   g(Stress)= 0.000E+00

 retain information from N=  2 steps
 eigenvalues of (default step * inverse Hessian matrix)
  average eigenvalue of G=   0.1927
 eigenvalue spectrum of G is  0.2923  0.0932


--------------------------------------------------------------------------------------------------------


  
 reached required accuracy - stopping structural energy minimisation
 writing wavefunctions
     LOOP+:  cpu time    1.73: real time    1.74
    4ORBIT:  cpu time    0.00: real time    0.00

 total amount of memory used by VASP on root node  47466. kBytes
========================================================================

   base      :    30000. kBytes
   nonl-proj :     9659. kBytes
   fftplans  :      924. kBytes
   grid      :     3437. kBytes
   one-center:      108. kBytes
   wavefun   :     3338. kBytes
 
  
  
 General timing and accounting informations for this job:
 ========================================================
  
                  Total CPU time used (sec):       16.087
                            User time (sec):       15.892
                          System time (sec):        0.195
                         Elapsed time (sec):       16.455
  
                   Maximum memory used (kb):       46760.
                   Average memory used (kb):           0.
  
                          Minor page faults:        12927
                          Major page faults:            0
                 Voluntary context switches:          968
