<?xml version="1.0" encoding="ISO-8859-1"?>
<modeling>
 <generator>
  <i name="program" type="string">vasp </i>
  <i name="version" type="string">5.2.2  </i>
  <i name="subversion" type="string">15Apr09 complex  parallel </i>
  <i name="platform" type="string">LinuxIFC </i>
  <i name="date" type="string">2017 01 11 </i>
  <i name="time" type="string">16:25:02 </i>
 </generator>
 <incar>
  <i type="string" name="SYSTEM"> CO adsorption on Ni(111)</i>
  <i type="int" name="ISTART">     0</i>
  <i type="string" name="PREC">normal</i>
  <i type="string" name="ALGO"> Fast</i>
  <i type="int" name="ICHARG">     2</i>
  <i type="int" name="IBRION">     1</i>
  <i type="int" name="NSW">   100</i>
  <i name="ENMAX">    400.00000000</i>
  <i name="POTIM">      0.20000000</i>
  <i type="int" name="ISMEAR">     2</i>
  <i name="SIGMA">      0.20000000</i>
  <i type="logical" name="LPEAD"> F  </i>
  <i type="logical" name="LCALCPOL"> F  </i>
  <i type="logical" name="LCALCEPS"> F  </i>
  <v name="EFIELD_PEAD">      0.00000000      0.00000000      0.00000000</v>
  <i type="logical" name="LEFG"> F  </i>
 </incar>
 <kpoints>
  <generation param="Monkhorst-Pack">
   <v type="int" name="divisions">       9        9        1 </v>
   <v name="usershift">      0.00000000       0.00000000       0.00000000 </v>
   <v name="genvec1">      0.11111111      -0.00000000       0.00000000 </v>
   <v name="genvec2">      0.00000000       0.11111111       0.00000000 </v>
   <v name="genvec3">      0.00000000       0.00000000       1.00000000 </v>
   <v name="shift">      0.00000000       0.00000000       0.00000000 </v>
  </generation>
  <varray name="kpointlist" >
   <v>       0.00000000       0.00000000       0.00000000 </v>
   <v>       0.11111111       0.00000000       0.00000000 </v>
   <v>       0.22222222       0.00000000       0.00000000 </v>
   <v>       0.33333333       0.00000000       0.00000000 </v>
   <v>       0.44444444       0.00000000       0.00000000 </v>
   <v>       0.11111111       0.11111111       0.00000000 </v>
   <v>       0.22222222       0.11111111       0.00000000 </v>
   <v>       0.33333333       0.11111111       0.00000000 </v>
   <v>       0.44444444       0.11111111       0.00000000 </v>
   <v>       0.22222222       0.22222222       0.00000000 </v>
   <v>       0.33333333       0.22222222       0.00000000 </v>
   <v>       0.33333333       0.33333333       0.00000000 </v>
  </varray>
  <varray name="weights" >
   <v>       0.01234568 </v>
   <v>       0.07407407 </v>
   <v>       0.07407407 </v>
   <v>       0.07407407 </v>
   <v>       0.07407407 </v>
   <v>       0.07407407 </v>
   <v>       0.14814815 </v>
   <v>       0.14814815 </v>
   <v>       0.07407407 </v>
   <v>       0.07407407 </v>
   <v>       0.14814815 </v>
   <v>       0.02469136 </v>
  </varray>
 </kpoints>
 <parameters>
  <separator name="general" >
   <i type="string" name="SYSTEM">CO adsorption on Ni(111)</i>
   <i type="logical" name="LCOMPAT"> F  </i>
  </separator>
  <separator name="electronic" >
   <i type="string" name="PREC">normal</i>
   <i name="ENMAX">    400.00000000</i>
   <i name="ENAUG">    644.87300000</i>
   <i name="EDIFF">      0.00010000</i>
   <i type="int" name="IALGO">    68</i>
   <i type="int" name="IWAVPR">    11</i>
   <i type="int" name="NBANDS">    36</i>
   <i name="NELECT">     60.00000000</i>
   <separator name="electronic smearing" >
    <i type="int" name="ISMEAR">     2</i>
    <i name="SIGMA">      0.20000000</i>
   </separator>
   <separator name="electronic projectors" >
    <i type="logical" name="LREAL"> F  </i>
    <v name="ROPT">      0.00000000      0.00000000      0.00000000</v>
    <i type="int" name="LMAXPAW">  -100</i>
    <i type="int" name="LMAXMIX">     2</i>
   </separator>
   <separator name="electronic startup" >
    <i type="int" name="ISTART">     0</i>
    <i type="int" name="ICHARG">     2</i>
    <i type="int" name="INIWAV">     1</i>
   </separator>
   <separator name="electronic spin" >
    <i type="int" name="ISPIN">     1</i>
    <i type="logical" name="LNONCOLLINEAR"> F  </i>
    <v name="MAGMOM">      1.00000000      1.00000000      1.00000000      1.00000000      1.00000000      1.00000000      1.00000000</v>
    <i name="NUPDOWN">     -1.00000000</i>
    <i type="logical" name="LSORBIT"> F  </i>
    <v name="SAXIS">      0.00000000      0.00000000      1.00000000</v>
    <i type="logical" name="LSPIRAL"> F  </i>
    <v name="QSPIRAL">      0.00000000      0.00000000      0.00000000</v>
    <i type="logical" name="LZEROZ"> F  </i>
   </separator>
   <separator name="electronic exchange-correlation" >
    <i type="logical" name="LASPH"> F  </i>
    <i type="logical" name="LMETAGGA"> F  </i>
   </separator>
   <separator name="electronic convergence" >
    <i type="int" name="NELM">    60</i>
    <i type="int" name="NELMDL">    -5</i>
    <i type="int" name="NELMIN">     2</i>
    <i name="ENINI">    400.00000000</i>
    <separator name="electronic convergence detail" >
     <i type="logical" name="LDIAG"> T  </i>
     <i name="WEIMIN">      0.00100000</i>
     <i name="EBREAK">      0.00000069</i>
     <i name="DEPER">      0.30000000</i>
     <i type="int" name="NRMM">     4</i>
     <i name="TIME">      0.40000000</i>
    </separator>
   </separator>
   <separator name="electronic mixer" >
    <i name="AMIX">      0.40000000</i>
    <i name="BMIX">      1.00000000</i>
    <i name="AMIN">      0.10000000</i>
    <i name="AMIX_MAG">      1.60000000</i>
    <i name="BMIX_MAG">      1.00000000</i>
    <separator name="electronic mixer details" >
     <i type="int" name="IMIX">     4</i>
     <i type="int" name="MAXMIX">   -45</i>
     <i name="WC">    100.00000000</i>
     <i type="int" name="INIMIX">     1</i>
     <i type="int" name="MIXPRE">     1</i>
     <i type="int" name="MREMOVE">     5</i>
    </separator>
   </separator>
   <separator name="electronic dipolcorrection" >
    <i type="logical" name="LDIPOL"> F  </i>
    <i type="logical" name="LMONO"> F  </i>
    <i type="int" name="IDIPOL">     0</i>
    <i name="EPSILON">      1.00000000</i>
    <v name="DIPOL">   -100.00000000   -100.00000000   -100.00000000</v>
    <i name="EFIELD">      0.00000000</i>
   </separator>
  </separator>
  <separator name="grids" >
   <i type="int" name="NGX">    12</i>
   <i type="int" name="NGY">    12</i>
   <i type="int" name="NGZ">    90</i>
   <i type="int" name="NGXF">    24</i>
   <i type="int" name="NGYF">    24</i>
   <i type="int" name="NGZF">   180</i>
   <i type="logical" name="ADDGRID"> F  </i>
  </separator>
  <separator name="ionic" >
   <i type="int" name="NSW">   100</i>
   <i type="int" name="IBRION">     1</i>
   <i type="int" name="ISIF">     2</i>
   <i name="PSTRESS">      0.00000000</i>
   <i name="EDIFFG">      0.00100000</i>
   <i type="int" name="NFREE">     0</i>
   <i name="POTIM">      0.20000000</i>
   <i name="SMASS">     -3.00000000</i>
  </separator>
  <separator name="ionic md" >
   <i name="TEBEG">      0.00010000</i>
   <i name="TEEND">      0.00010000</i>
   <i type="int" name="NBLOCK">     1</i>
   <i type="int" name="KBLOCK">   100</i>
   <i type="int" name="NPACO">   256</i>
   <i name="APACO">     16.00000000</i>
  </separator>
  <separator name="symmetry" >
   <i type="int" name="ISYM">     2</i>
   <i name="SYMPREC">      0.00001000</i>
  </separator>
  <separator name="dos" >
   <i type="logical" name="LORBIT"> F  </i>
   <v name="RWIGS">     -1.00000000     -1.00000000     -1.00000000</v>
   <i type="int" name="NEDOS">   301</i>
   <i name="EMIN">     10.00000000</i>
   <i name="EMAX">    -10.00000000</i>
   <i name="EFERMI">      0.00000000</i>
  </separator>
  <separator name="writing" >
   <i type="int" name="NWRITE">     2</i>
   <i type="logical" name="LWAVE"> T  </i>
   <i type="logical" name="LCHARG"> T  </i>
   <i type="logical" name="LPARD"> F  </i>
   <i type="logical" name="LVTOT"> F  </i>
   <i type="logical" name="LELF"> F  </i>
   <i type="logical" name="LOPTICS"> F  </i>
   <v name="STM">      0.00000000      0.00000000      0.00000000      0.00000000      0.00000000</v>
  </separator>
  <separator name="performance" >
   <i type="int" name="NPAR">     4</i>
   <i type="int" name="NSIM">     4</i>
   <i type="int" name="NBLK">    32</i>
   <i type="logical" name="LPLANE"> T  </i>
   <i type="logical" name="LSCALAPACK"> F  </i>
   <i type="logical" name="LSCAAWARE"> F  </i>
   <i type="logical" name="LSCALU"> F  </i>
   <i type="logical" name="LASYNC"> F  </i>
  </separator>
  <separator name="miscellaneous" >
   <i type="int" name="IDIOT">     3</i>
   <i type="logical" name="LMUSIC"> F  </i>
   <v name="POMASS">     58.69000000     12.01100000     16.00000000</v>
   <i type="logical" name="LCORR"> T  </i>
  </separator>
  <i type="logical" name="LREAL_COMPAT"> F  </i>
  <i type="logical" name="GGA_COMPAT"> T  </i>
  <i type="logical" name="LBERRY"> F  </i>
  <i type="int" name="ICORELEVEL">     0</i>
  <i type="logical" name="LDAU"> F  </i>
  <i type="int" name="I_CONSTRAINED_M">     0</i>
  <separator name="electronic exchange-correlation" >
   <i type="string" name="GGA">--</i>
   <i type="int" name="VOSKOWN">     0</i>
   <i type="logical" name="LHFCALC"> F  </i>
   <i type="logical" name="LHFONE"> F  </i>
   <i type="logical" name="LRHFCALC"> F  </i>
   <i type="logical" name="LTHOMAS"> F  </i>
   <i type="logical" name="LMODELHF"> F  </i>
   <i name="ENCUTFOCK">      0.00000000</i>
   <i name="ENCUT4O">     -1.00000000</i>
   <i type="int" name="EXXOEP">     0</i>
   <i type="int" name="FOURORBIT">     0</i>
   <i name="AEXX">      0.00000000</i>
   <i name="HFALPHA">      0.00000000</i>
   <i name="ALDAX">      1.00000000</i>
   <i name="AGGAX">      1.00000000</i>
   <i name="ALDAC">      1.00000000</i>
   <i name="AGGAC">      1.00000000</i>
   <i type="int" name="NKREDX">     1</i>
   <i type="int" name="NKREDY">     1</i>
   <i type="int" name="NKREDZ">     1</i>
   <i type="logical" name="SHIFTRED"> F  </i>
   <i type="logical" name="ODDONLY"> F  </i>
   <i type="logical" name="EVENONLY"> F  </i>
   <i type="int" name="LMAXFOCK">     0</i>
   <i type="int" name="NMAXFOCKAE">     0</i>
   <i name="HFSCREEN">      0.00000000</i>
   <i name="HFSCREENC">      0.00000000</i>
  </separator>
  <separator name="model GW" >
   <i type="int" name="MODEL_GW">     0</i>
   <i name="MODEL_EPS0">      8.48320216</i>
   <i name="MODEL_ALPHA">      1.00000000</i>
  </separator>
  <separator name="linear response parameters" >
   <i type="logical" name="LEPSILON"> F  </i>
   <i type="logical" name="LRPA"> F  </i>
   <i type="logical" name="LNABLA"> F  </i>
   <i type="logical" name="LVEL"> F  </i>
   <i type="int" name="KINTER">     0</i>
   <i name="CSHIFT">      0.10000000</i>
   <i name="OMEGAMAX">     -1.00000000</i>
  </separator>
  <separator name="orbital magnetization" >
   <i type="logical" name="ORBITALMAG"> F  </i>
   <i type="logical" name="LMAGBLOCH"> F  </i>
   <i type="logical" name="LCHIMAG"> F  </i>
   <i type="logical" name="LGAUGE"> T  </i>
   <i type="int" name="MAGATOM">     0</i>
   <v name="MAGDIPOL">      0.00000000      0.00000000      0.00000000</v>
   <v name="AVECCONST">      0.00000000      0.00000000      0.00000000</v>
  </separator>
  <separator name="response functions" >
   <i type="logical" name="LRPA"> T  </i>
   <i type="logical" name="LTCTE"> F  </i>
   <i type="logical" name="LTETE"> F  </i>
   <i type="logical" name="L2ORDER"> F  </i>
   <i type="logical" name="LGWLF"> F  </i>
   <i name="ENCUTGW">    266.66666667</i>
   <i name="ENCUTGWSOFT">     -2.00000000</i>
   <i name="ENCUTLF">     -1.00000000</i>
   <i type="int" name="LMAXMP2">    -1</i>
   <i name="SCISSOR">      0.00000000</i>
   <i type="int" name="NOMEGA">     0</i>
   <i type="int" name="NOMEGAR">     0</i>
   <i type="int" name="NBANDSGW">    -1</i>
   <i type="int" name="NBANDSLF">    -1</i>
   <i type="int" name="NELM">     1</i>
   <i type="int" name="DIM">     3</i>
   <i type="int" name="ANTIRES">     0</i>
   <i type="logical" name="LUSEW"> F  </i>
   <i name="OMEGAMAX">    -30.00000000</i>
   <i name="OMEGATL">   -200.00000000</i>
   <i type="int" name="OMEGAGRID">     0</i>
   <i name="CSHIFT">     -0.10000000</i>
   <i type="logical" name="SELFENERGY"> F  </i>
   <i type="logical" name="LSPECTRAL"> F  </i>
   <i type="logical" name="ODDONLYGW"> F  </i>
   <i type="logical" name="EVENONLYGW"> F  </i>
   <i type="int" name="NKREDLFX">     1</i>
   <i type="int" name="NKREDLFY">     1</i>
   <i type="int" name="NKREDLFZ">     1</i>
   <i type="int" name="MAXMEM">  1024</i>
   <i type="int" name="TELESCOPE">     0</i>
  </separator>
 </parameters>
 <atominfo>
  <atoms>       7 </atoms>
  <types>       3 </types>
  <array name="atoms" >
   <dimension dim="1">ion</dimension>
   <field type="string">element</field>
   <field type="int">atomtype</field>
   <set>
    <rc><c>Ni</c><c>   1</c></rc>
    <rc><c>Ni</c><c>   1</c></rc>
    <rc><c>Ni</c><c>   1</c></rc>
    <rc><c>Ni</c><c>   1</c></rc>
    <rc><c>Ni</c><c>   1</c></rc>
    <rc><c>C </c><c>   2</c></rc>
    <rc><c>O </c><c>   3</c></rc>
   </set>
  </array>
  <array name="atomtypes" >
   <dimension dim="1">type</dimension>
   <field type="int">atomspertype</field>
   <field type="string">element</field>
   <field>mass</field>
   <field>valence</field>
   <field type="string">pseudopotential</field>
   <set>
    <rc><c>   5</c><c>Ni</c><c>     58.69000000</c><c>     10.00000000</c><c>  PAW Ni                                </c></rc>
    <rc><c>   1</c><c>C </c><c>     12.01100000</c><c>      4.00000000</c><c>  PAW C                                 </c></rc>
    <rc><c>   1</c><c>O </c><c>     16.00000000</c><c>      6.00000000</c><c>  PAW O                                 </c></rc>
   </set>
  </array>
 </atominfo>
 <structure name="initialpos" >
  <crystal>
   <varray name="basis" >
    <v>       2.49608693       0.00000000       0.00000000 </v>
    <v>      -1.24804347       2.16167457       0.00000000 </v>
    <v>       0.00000000       0.00000000      18.34241797 </v>
   </varray>
   <i name="volume">     98.97069188 </i>
   <varray name="rec_basis" >
    <v>       0.40062707       0.23130216       0.00000000 </v>
    <v>       0.00000000       0.46260432       0.00000000 </v>
    <v>       0.00000000       0.00000000       0.05451844 </v>
   </varray>
  </crystal>
  <varray name="positions" >
   <v>       0.00000000       0.00000000       0.00000000 </v>
   <v>       0.33333333       0.66666667       0.11111111 </v>
   <v>       0.66666667       0.33333333       0.22222222 </v>
   <v>       0.00000000       0.00000000       0.33333333 </v>
   <v>       0.33333333       0.66666667       0.44444444 </v>
   <v>       0.33333333       0.66666667       0.54029062 </v>
   <v>       0.33333333       0.66666667       0.60298866 </v>
  </varray>
  <varray name="selective"  type="logical" >
   <v type="logical" >  F  F  F </v>
   <v type="logical" >  F  F  F </v>
   <v type="logical" >  F  F  F </v>
   <v type="logical" >  T  T  T </v>
   <v type="logical" >  T  T  T </v>
   <v type="logical" >  T  T  T </v>
   <v type="logical" >  T  T  T </v>
  </varray>
  <nose>
   <v>      -3.00000000       0.00000000       0.00010000       0.00010000 </v>
  </nose>
 </structure>
 <calculation>
  <scstep>
   <time name="dav">    0.31    0.31</time>
   <time name="total">    0.34    0.34</time>
   <energy>
    <i name="alphaZ">    330.36518305 </i>
    <i name="ewald">   4486.17921864 </i>
    <i name="hartreedc"> -10634.70466857 </i>
    <i name="XCdc">    198.15111553 </i>
    <i name="pawpsdc">   4641.46468397 </i>
    <i name="pawaedc">  -4980.73307793 </i>
    <i name="eentropy">     -0.00458791 </i>
    <i name="bandstr">    447.65091712 </i>
    <i name="atom">   5977.64779135 </i>
    <i name="e_fr_energy">    466.01657526 </i>
    <i name="e_wo_entrp">    466.02116317 </i>
    <i name="e_0_energy">    466.01772224 </i>
   </energy>
  </scstep>
  <scstep>
   <time name="dav">    0.30    0.30</time>
   <time name="total">    0.30    0.30</time>
   <energy>
    <i name="e_fr_energy">     20.65956010 </i>
    <i name="e_wo_entrp">     20.66149550 </i>
    <i name="e_0_energy">     20.66004395 </i>
   </energy>
  </scstep>
  <scstep>
   <time name="dav">    0.37    0.38</time>
   <time name="total">    0.38    0.38</time>
   <energy>
    <i name="e_fr_energy">    -42.07327879 </i>
    <i name="e_wo_entrp">    -42.04550831 </i>
    <i name="e_0_energy">    -42.06633617 </i>
   </energy>
  </scstep>
  <scstep>
   <time name="dav">    0.32    0.32</time>
   <time name="total">    0.33    0.33</time>
   <energy>
    <i name="e_fr_energy">    -47.18240833 </i>
    <i name="e_wo_entrp">    -47.14774521 </i>
    <i name="e_0_energy">    -47.17374255 </i>
   </energy>
  </scstep>
  <scstep>
   <time name="dav">    0.39    0.39</time>
   <time name="total">    0.42    0.42</time>
   <energy>
    <i name="e_fr_energy">    -47.39415918 </i>
    <i name="e_wo_entrp">    -47.35957931 </i>
    <i name="e_0_energy">    -47.38551421 </i>
   </energy>
  </scstep>
  <scstep>
   <time name="diag">    0.06    0.06</time>
   <time name="diis">    0.20    0.20</time>
   <time name="orth">    0.01    0.01</time>
   <time name="total">    0.32    0.32</time>
   <energy>
    <i name="e_fr_energy">    -53.55071510 </i>
    <i name="e_wo_entrp">    -53.57011150 </i>
    <i name="e_0_energy">    -53.55556420 </i>
   </energy>
  </scstep>
  <scstep>
   <time name="diag">    0.05    0.06</time>
   <time name="diis">    0.20    0.20</time>
   <time name="orth">    0.01    0.01</time>
   <time name="total">    0.32    0.32</time>
   <energy>
    <i name="e_fr_energy">    -50.91206296 </i>
    <i name="e_wo_entrp">    -50.92477765 </i>
    <i name="e_0_energy">    -50.91524163 </i>
   </energy>
  </scstep>
  <scstep>
   <time name="diag">    0.06    0.06</time>
   <time name="diis">    0.21    0.21</time>
   <time name="orth">    0.01    0.01</time>
   <time name="total">    0.32    0.32</time>
   <energy>
    <i name="e_fr_energy">    -44.39482450 </i>
    <i name="e_wo_entrp">    -44.38613249 </i>
    <i name="e_0_energy">    -44.39265150 </i>
   </energy>
  </scstep>
  <scstep>
   <time name="diag">    0.06    0.06</time>
   <time name="diis">    0.20    0.20</time>
   <time name="orth">    0.01    0.01</time>
   <time name="total">    0.32    0.32</time>
   <energy>
    <i name="e_fr_energy">    -43.93038362 </i>
    <i name="e_wo_entrp">    -43.92026963 </i>
    <i name="e_0_energy">    -43.92785512 </i>
   </energy>
  </scstep>
  <scstep>
   <time name="diag">    0.06    0.06</time>
   <time name="diis">    0.20    0.20</time>
   <time name="orth">    0.01    0.01</time>
   <time name="total">    0.32    0.32</time>
   <energy>
    <i name="e_fr_energy">    -43.93087493 </i>
    <i name="e_wo_entrp">    -43.94193551 </i>
    <i name="e_0_energy">    -43.93364008 </i>
   </energy>
  </scstep>
  <scstep>
   <time name="diag">    0.06    0.06</time>
   <time name="diis">    0.21    0.21</time>
   <time name="orth">    0.01    0.01</time>
   <time name="total">    0.33    0.33</time>
   <energy>
    <i name="e_fr_energy">    -41.97939766 </i>
    <i name="e_wo_entrp">    -41.96221672 </i>
    <i name="e_0_energy">    -41.97510242 </i>
   </energy>
  </scstep>
  <scstep>
   <time name="diag">    0.06    0.06</time>
   <time name="diis">    0.20    0.21</time>
   <time name="orth">    0.01    0.01</time>
   <time name="total">    0.32    0.32</time>
   <energy>
    <i name="e_fr_energy">    -41.28322990 </i>
    <i name="e_wo_entrp">    -41.25980877 </i>
    <i name="e_0_energy">    -41.27737462 </i>
   </energy>
  </scstep>
  <scstep>
   <time name="diag">    0.06    0.06</time>
   <time name="diis">    0.21    0.21</time>
   <time name="orth">    0.01    0.01</time>
   <time name="total">    0.33    0.33</time>
   <energy>
    <i name="e_fr_energy">    -40.92327280 </i>
    <i name="e_wo_entrp">    -40.89390094 </i>
    <i name="e_0_energy">    -40.91592984 </i>
   </energy>
  </scstep>
  <scstep>
   <time name="diag">    0.06    0.06</time>
   <time name="diis">    0.21    0.21</time>
   <time name="orth">    0.01    0.01</time>
   <time name="total">    0.33    0.33</time>
   <energy>
    <i name="e_fr_energy">    -40.86114169 </i>
    <i name="e_wo_entrp">    -40.84252749 </i>
    <i name="e_0_energy">    -40.85648814 </i>
   </energy>
  </scstep>
  <scstep>
   <time name="diag">    0.06    0.06</time>
   <time name="diis">    0.22    0.22</time>
   <time name="orth">    0.01    0.01</time>
   <time name="total">    0.34    0.34</time>
   <energy>
    <i name="e_fr_energy">    -40.84785364 </i>
    <i name="e_wo_entrp">    -40.82842009 </i>
    <i name="e_0_energy">    -40.84299525 </i>
   </energy>
  </scstep>
  <scstep>
   <time name="diag">    0.06    0.06</time>
   <time name="diis">    0.20    0.20</time>
   <time name="orth">    0.01    0.01</time>
   <time name="total">    0.32    0.32</time>
   <energy>
    <i name="e_fr_energy">    -40.83326639 </i>
    <i name="e_wo_entrp">    -40.81521975 </i>
    <i name="e_0_energy">    -40.82875473 </i>
   </energy>
  </scstep>
  <scstep>
   <time name="diag">    0.05    0.06</time>
   <time name="diis">    0.21    0.21</time>
   <time name="orth">    0.01    0.01</time>
   <time name="total">    0.32    0.32</time>
   <energy>
    <i name="e_fr_energy">    -40.83162312 </i>
    <i name="e_wo_entrp">    -40.81369447 </i>
    <i name="e_0_energy">    -40.82714096 </i>
   </energy>
  </scstep>
  <scstep>
   <time name="diag">    0.06    0.06</time>
   <time name="diis">    0.15    0.15</time>
   <time name="orth">    0.01    0.01</time>
   <time name="total">    0.27    0.27</time>
   <energy>
    <i name="e_fr_energy">    -40.83089391 </i>
    <i name="e_wo_entrp">    -40.81259809 </i>
    <i name="e_0_energy">    -40.82631995 </i>
   </energy>
  </scstep>
  <scstep>
   <time name="diag">    0.05    0.06</time>
   <time name="diis">    0.16    0.16</time>
   <time name="orth">    0.01    0.01</time>
   <time name="total">    0.26    0.26</time>
   <energy>
    <i name="alphaZ">    330.36518305 </i>
    <i name="ewald">   4486.17921864 </i>
    <i name="hartreedc"> -10575.77469715 </i>
    <i name="XCdc">    194.42906735 </i>
    <i name="pawpsdc">   4977.04241430 </i>
    <i name="pawaedc">  -5324.30864150 </i>
    <i name="eentropy">     -0.01809973 </i>
    <i name="bandstr">   -106.39308549 </i>
    <i name="atom">   5977.64779135 </i>
    <i name="e_fr_energy">    -40.83084917 </i>
    <i name="e_wo_entrp">    -40.81274944 </i>
    <i name="e_0_energy">    -40.82632424 </i>
   </energy>
  </scstep>
  <structure>
   <crystal>
    <varray name="basis" >
     <v>       2.49608693       0.00000000       0.00000000 </v>
     <v>      -1.24804347       2.16167457       0.00000000 </v>
     <v>       0.00000000       0.00000000      18.34241797 </v>
    </varray>
    <i name="volume">     98.97069188 </i>
    <varray name="rec_basis" >
     <v>       0.40062707       0.23130216       0.00000000 </v>
     <v>       0.00000000       0.46260432       0.00000000 </v>
     <v>       0.00000000       0.00000000       0.05451844 </v>
    </varray>
   </crystal>
   <varray name="positions" >
    <v>       0.00000000       0.00000000       0.00000000 </v>
    <v>       0.33333333       0.66666667       0.11111111 </v>
    <v>       0.66666667       0.33333333       0.22222222 </v>
    <v>       0.00000000       0.00000000       0.33333333 </v>
    <v>       0.33333333       0.66666667       0.44444444 </v>
    <v>       0.33333333       0.66666667       0.54029062 </v>
    <v>       0.33333333       0.66666667       0.60298866 </v>
   </varray>
  </structure>
  <varray name="forces" >
   <v>      -0.00000000       0.00000000       0.19447168 </v>
   <v>       0.00000000       0.00000000      -0.09405096 </v>
   <v>       0.00000000       0.00000000      -0.01430193 </v>
   <v>       0.00000000       0.00000000      -0.15514585 </v>
   <v>       0.00000000      -0.00000000       0.06492697 </v>
   <v>       0.00000000      -0.00000000      -0.53821136 </v>
   <v>       0.00000000       0.00000000       0.54231145 </v>
  </varray>
  <varray name="stress" >
   <v>      43.10747369       0.00000000       0.00000000 </v>
   <v>       0.00000000      43.10746881       0.00000000 </v>
   <v>      -0.00000000       0.00000000     -14.36479797 </v>
  </varray>
  <energy>
   <i name="e_fr_energy">    -40.83084917 </i>
   <i name="e_wo_entrp">    -40.82632424 </i>
   <i name="e_0_energy">     -0.01809973 </i>
  </energy>
  <time name="totalsc">    6.91    6.94</time>
 </calculation>
 <calculation>
  <scstep>
   <time name="dav">    0.30    0.30</time>
   <time name="total">    0.35    0.35</time>
   <energy>
    <i name="alphaZ">    330.36518305 </i>
    <i name="ewald">   4477.08041288 </i>
    <i name="hartreedc"> -10568.86523522 </i>
    <i name="XCdc">    194.35766891 </i>
    <i name="pawpsdc">   4976.69300827 </i>
    <i name="pawaedc">  -5323.92315392 </i>
    <i name="eentropy">     -0.01815051 </i>
    <i name="bandstr">   -104.15604635 </i>
    <i name="atom">   5977.64779135 </i>
    <i name="e_fr_energy">    -40.81852154 </i>
    <i name="e_wo_entrp">    -40.80037103 </i>
    <i name="e_0_energy">    -40.81398391 </i>
   </energy>
  </scstep>
  <scstep>
   <time name="diag">    0.06    0.06</time>
   <time name="diis">    0.24    0.24</time>
   <time name="orth">    0.01    0.01</time>
   <time name="total">    0.35    0.36</time>
   <energy>
    <i name="e_fr_energy">    -40.82383439 </i>
    <i name="e_wo_entrp">    -40.80618090 </i>
    <i name="e_0_energy">    -40.81942102 </i>
   </energy>
  </scstep>
  <scstep>
   <time name="diag">    0.06    0.06</time>
   <time name="diis">    0.20    0.20</time>
   <time name="orth">    0.01    0.01</time>
   <time name="total">    0.32    0.32</time>
   <energy>
    <i name="e_fr_energy">    -40.82345822 </i>
    <i name="e_wo_entrp">    -40.80558183 </i>
    <i name="e_0_energy">    -40.81898913 </i>
   </energy>
  </scstep>
  <scstep>
   <time name="diag">    0.06    0.06</time>
   <time name="diis">    0.19    0.19</time>
   <time name="orth">    0.01    0.01</time>
   <time name="total">    0.31    0.31</time>
   <energy>
    <i name="e_fr_energy">    -40.82345383 </i>
    <i name="e_wo_entrp">    -40.80391474 </i>
    <i name="e_0_energy">    -40.81856905 </i>
   </energy>
  </scstep>
  <scstep>
   <time name="diag">    0.06    0.06</time>
   <time name="diis">    0.20    0.20</time>
   <time name="orth">    0.01    0.01</time>
   <time name="total">    0.32    0.32</time>
   <energy>
    <i name="e_fr_energy">    -40.82211922 </i>
    <i name="e_wo_entrp">    -40.80512242 </i>
    <i name="e_0_energy">    -40.81787002 </i>
   </energy>
  </scstep>
  <scstep>
   <time name="diag">    0.06    0.06</time>
   <time name="diis">    0.20    0.20</time>
   <time name="orth">    0.01    0.01</time>
   <time name="total">    0.32    0.32</time>
   <energy>
    <i name="e_fr_energy">    -40.81942888 </i>
    <i name="e_wo_entrp">    -40.79986637 </i>
    <i name="e_0_energy">    -40.81453825 </i>
   </energy>
  </scstep>
  <scstep>
   <time name="diag">    0.06    0.06</time>
   <time name="diis">    0.20    0.20</time>
   <time name="orth">    0.01    0.01</time>
   <time name="total">    0.32    0.32</time>
   <energy>
    <i name="e_fr_energy">    -40.82075814 </i>
    <i name="e_wo_entrp">    -40.80113763 </i>
    <i name="e_0_energy">    -40.81585301 </i>
   </energy>
  </scstep>
  <scstep>
   <time name="diag">    0.06    0.06</time>
   <time name="diis">    0.20    0.20</time>
   <time name="orth">    0.01    0.01</time>
   <time name="total">    0.32    0.32</time>
   <energy>
    <i name="e_fr_energy">    -40.81869581 </i>
    <i name="e_wo_entrp">    -40.80012112 </i>
    <i name="e_0_energy">    -40.81405214 </i>
   </energy>
  </scstep>
  <scstep>
   <time name="diag">    0.05    0.06</time>
   <time name="diis">    0.12    0.12</time>
   <time name="orth">    0.01    0.01</time>
   <time name="total">    0.24    0.24</time>
   <energy>
    <i name="e_fr_energy">    -40.81857470 </i>
    <i name="e_wo_entrp">    -40.79994160 </i>
    <i name="e_0_energy">    -40.81391643 </i>
   </energy>
  </scstep>
  <scstep>
   <time name="diag">    0.06    0.06</time>
   <time name="diis">    0.12    0.12</time>
   <time name="orth">    0.01    0.01</time>
   <time name="total">    0.21    0.21</time>
   <energy>
    <i name="alphaZ">    330.36518305 </i>
    <i name="ewald">   4477.08041288 </i>
    <i name="hartreedc"> -10567.38067320 </i>
    <i name="XCdc">    194.30237629 </i>
    <i name="pawpsdc">   4971.91216066 </i>
    <i name="pawaedc">  -5319.13415038 </i>
    <i name="eentropy">     -0.01869812 </i>
    <i name="bandstr">   -105.59301912 </i>
    <i name="atom">   5977.64779135 </i>
    <i name="e_fr_energy">    -40.81861659 </i>
    <i name="e_wo_entrp">    -40.79991847 </i>
    <i name="e_0_energy">    -40.81394206 </i>
   </energy>
  </scstep>
  <structure>
   <crystal>
    <varray name="basis" >
     <v>       2.49608693       0.00000000       0.00000000 </v>
     <v>      -1.24804347       2.16167457       0.00000000 </v>
     <v>       0.00000000       0.00000000      18.34241797 </v>
    </varray>
    <i name="volume">     98.97069188 </i>
    <varray name="rec_basis" >
     <v>       0.40062707       0.23130216       0.00000000 </v>
     <v>       0.00000000       0.46260432       0.00000000 </v>
     <v>       0.00000000       0.00000000       0.05451844 </v>
    </varray>
   </crystal>
   <varray name="positions" >
    <v>       0.00000000       0.00000000       0.00000000 </v>
    <v>       0.33333333       0.66666667       0.11111111 </v>
    <v>       0.66666667       0.33333333       0.22222222 </v>
    <v>       0.00000000       0.00000000       0.33317011 </v>
    <v>       0.33333333       0.66666667       0.44451275 </v>
    <v>       0.33333333       0.66666667       0.53972440 </v>
    <v>       0.33333333       0.66666667       0.60355920 </v>
   </varray>
  </structure>
  <varray name="forces" >
   <v>      -0.00000000      -0.00000000       0.17399418 </v>
   <v>       0.00000000       0.00000000      -0.10699262 </v>
   <v>       0.00000000       0.00000000      -0.02994931 </v>
   <v>       0.00000000       0.00000000      -0.12201294 </v>
   <v>       0.00000000       0.00000000      -0.10297173 </v>
   <v>       0.00000000       0.00000000       1.82918678 </v>
   <v>       0.00000000       0.00000000      -1.64125437 </v>
  </varray>
  <varray name="stress" >
   <v>      45.18148997       0.00000000       0.00000000 </v>
   <v>       0.00000000      45.18148485       0.00000000 </v>
   <v>       0.00000000       0.00000000     -48.03348229 </v>
  </varray>
  <energy>
   <i name="e_fr_energy">    -40.81861659 </i>
   <i name="e_wo_entrp">    -40.81394206 </i>
   <i name="e_0_energy">     -0.01869812 </i>
  </energy>
  <time name="totalsc">    3.69    3.69</time>
 </calculation>
 <calculation>
  <scstep>
   <time name="dav">    0.30    0.30</time>
   <time name="total">    0.35    0.35</time>
   <energy>
    <i name="alphaZ">    330.36518305 </i>
    <i name="ewald">   4483.86037145 </i>
    <i name="hartreedc"> -10572.89477789 </i>
    <i name="XCdc">    194.35653622 </i>
    <i name="pawpsdc">   4971.89294915 </i>
    <i name="pawaedc">  -5319.11851390 </i>
    <i name="eentropy">     -0.01857505 </i>
    <i name="bandstr">   -106.92438913 </i>
    <i name="atom">   5977.64779135 </i>
    <i name="e_fr_energy">    -40.83342475 </i>
    <i name="e_wo_entrp">    -40.81484971 </i>
    <i name="e_0_energy">    -40.82878099 </i>
   </energy>
  </scstep>
  <scstep>
   <time name="diag">    0.06    0.06</time>
   <time name="diis">    0.25    0.25</time>
   <time name="orth">    0.01    0.01</time>
   <time name="total">    0.36    0.36</time>
   <energy>
    <i name="e_fr_energy">    -40.83476727 </i>
    <i name="e_wo_entrp">    -40.81718903 </i>
    <i name="e_0_energy">    -40.83037271 </i>
   </energy>
  </scstep>
  <scstep>
   <time name="diag">    0.06    0.06</time>
   <time name="diis">    0.19    0.19</time>
   <time name="orth">    0.01    0.01</time>
   <time name="total">    0.31    0.31</time>
   <energy>
    <i name="e_fr_energy">    -40.83690496 </i>
    <i name="e_wo_entrp">    -40.81897504 </i>
    <i name="e_0_energy">    -40.83242248 </i>
   </energy>
  </scstep>
  <scstep>
   <time name="diag">    0.06    0.06</time>
   <time name="diis">    0.19    0.19</time>
   <time name="orth">    0.01    0.01</time>
   <time name="total">    0.31    0.31</time>
   <energy>
    <i name="e_fr_energy">    -40.83758389 </i>
    <i name="e_wo_entrp">    -40.81584716 </i>
    <i name="e_0_energy">    -40.83214970 </i>
   </energy>
  </scstep>
  <scstep>
   <time name="diag">    0.06    0.06</time>
   <time name="diis">    0.20    0.20</time>
   <time name="orth">    0.01    0.01</time>
   <time name="total">    0.31    0.31</time>
   <energy>
    <i name="e_fr_energy">    -40.83380824 </i>
    <i name="e_wo_entrp">    -40.81643956 </i>
    <i name="e_0_energy">    -40.82946607 </i>
   </energy>
  </scstep>
  <scstep>
   <time name="diag">    0.06    0.06</time>
   <time name="diis">    0.20    0.20</time>
   <time name="orth">    0.01    0.01</time>
   <time name="total">    0.32    0.32</time>
   <energy>
    <i name="e_fr_energy">    -40.83502289 </i>
    <i name="e_wo_entrp">    -40.81630653 </i>
    <i name="e_0_energy">    -40.83034380 </i>
   </energy>
  </scstep>
  <scstep>
   <time name="diag">    0.06    0.06</time>
   <time name="diis">    0.19    0.19</time>
   <time name="orth">    0.01    0.01</time>
   <time name="total">    0.31    0.31</time>
   <energy>
    <i name="e_fr_energy">    -40.83319728 </i>
    <i name="e_wo_entrp">    -40.81488161 </i>
    <i name="e_0_energy">    -40.82861836 </i>
   </energy>
  </scstep>
  <scstep>
   <time name="diag">    0.06    0.06</time>
   <time name="diis">    0.12    0.12</time>
   <time name="orth">    0.01    0.01</time>
   <time name="total">    0.22    0.22</time>
   <energy>
    <i name="alphaZ">    330.36518305 </i>
    <i name="ewald">   4483.86037145 </i>
    <i name="hartreedc"> -10574.72791580 </i>
    <i name="XCdc">    194.40176263 </i>
    <i name="pawpsdc">   4975.28654185 </i>
    <i name="pawaedc">  -5322.50194345 </i>
    <i name="eentropy">     -0.01838806 </i>
    <i name="bandstr">   -105.14658576 </i>
    <i name="atom">   5977.64779135 </i>
    <i name="e_fr_energy">    -40.83318275 </i>
    <i name="e_wo_entrp">    -40.81479469 </i>
    <i name="e_0_energy">    -40.82858573 </i>
   </energy>
  </scstep>
  <structure>
   <crystal>
    <varray name="basis" >
     <v>       2.49608693       0.00000000       0.00000000 </v>
     <v>      -1.24804347       2.16167457       0.00000000 </v>
     <v>       0.00000000       0.00000000      18.34241797 </v>
    </varray>
    <i name="volume">     98.97069188 </i>
    <varray name="rec_basis" >
     <v>       0.40062707       0.23130216       0.00000000 </v>
     <v>       0.00000000       0.46260432       0.00000000 </v>
     <v>       0.00000000       0.00000000       0.05451844 </v>
    </varray>
   </crystal>
   <varray name="positions" >
    <v>       0.00000000       0.00000000       0.00000000 </v>
    <v>       0.33333333       0.66666667       0.11111111 </v>
    <v>       0.66666667       0.33333333       0.22222222 </v>
    <v>       0.00000000       0.00000000       0.33313957 </v>
    <v>       0.33333333       0.66666667       0.44448698 </v>
    <v>       0.33333333       0.66666667       0.54018217 </v>
    <v>       0.33333333       0.66666667       0.60314846 </v>
   </varray>
  </structure>
  <varray name="forces" >
   <v>      -0.00000000       0.00000000       0.16987543 </v>
   <v>       0.00000000       0.00000000      -0.10551310 </v>
   <v>       0.00000000       0.00000000      -0.01579800 </v>
   <v>       0.00000000       0.00000000      -0.10655792 </v>
   <v>       0.00000000      -0.00000000       0.02841400 </v>
   <v>       0.00000000       0.00000000       0.04195022 </v>
   <v>      -0.00000000       0.00000000      -0.01237063 </v>
  </varray>
  <varray name="stress" >
   <v>      45.77821001       0.00000000       0.00000000 </v>
   <v>       0.00000000      45.77820483       0.00000000 </v>
   <v>       0.00000000       0.00000000     -19.92389902 </v>
  </varray>
  <energy>
   <i name="e_fr_energy">    -40.83318275 </i>
   <i name="e_wo_entrp">    -40.82858573 </i>
   <i name="e_0_energy">     -0.01838806 </i>
  </energy>
  <time name="totalsc">    3.11    3.11</time>
 </calculation>
 <calculation>
  <scstep>
   <time name="dav">    0.31    0.31</time>
   <time name="total">    0.36    0.36</time>
   <energy>
    <i name="alphaZ">    330.36518305 </i>
    <i name="ewald">   4483.63402996 </i>
    <i name="hartreedc"> -10574.48765397 </i>
    <i name="XCdc">    194.40218126 </i>
    <i name="pawpsdc">   4975.27821232 </i>
    <i name="pawaedc">  -5322.49254369 </i>
    <i name="eentropy">     -0.01834750 </i>
    <i name="bandstr">   -105.16215013 </i>
    <i name="atom">   5977.64779135 </i>
    <i name="e_fr_energy">    -40.83329735 </i>
    <i name="e_wo_entrp">    -40.81494985 </i>
    <i name="e_0_energy">    -40.82871048 </i>
   </energy>
  </scstep>
  <scstep>
   <time name="diag">    0.06    0.06</time>
   <time name="diis">    0.16    0.16</time>
   <time name="orth">    0.01    0.01</time>
   <time name="total">    0.28    0.28</time>
   <energy>
    <i name="e_fr_energy">    -40.83409374 </i>
    <i name="e_wo_entrp">    -40.81708911 </i>
    <i name="e_0_energy">    -40.82984258 </i>
   </energy>
  </scstep>
  <scstep>
   <time name="diag">    0.06    0.06</time>
   <time name="diis">    0.13    0.13</time>
   <time name="orth">    0.01    0.01</time>
   <time name="total">    0.25    0.25</time>
   <energy>
    <i name="e_fr_energy">    -40.83336270 </i>
    <i name="e_wo_entrp">    -40.81479463 </i>
    <i name="e_0_energy">    -40.82872068 </i>
   </energy>
  </scstep>
  <scstep>
   <time name="diag">    0.05    0.06</time>
   <time name="diis">    0.12    0.12</time>
   <time name="orth">    0.01    0.01</time>
   <time name="total">    0.21    0.21</time>
   <energy>
    <i name="alphaZ">    330.36518305 </i>
    <i name="ewald">   4483.63402996 </i>
    <i name="hartreedc"> -10574.51976067 </i>
    <i name="XCdc">    194.40359330 </i>
    <i name="pawpsdc">   4975.33742111 </i>
    <i name="pawaedc">  -5322.55547560 </i>
    <i name="eentropy">     -0.01823468 </i>
    <i name="bandstr">   -105.12786490 </i>
    <i name="atom">   5977.64779135 </i>
    <i name="e_fr_energy">    -40.83331708 </i>
    <i name="e_wo_entrp">    -40.81508240 </i>
    <i name="e_0_energy">    -40.82875841 </i>
   </energy>
  </scstep>
  <structure>
   <crystal>
    <varray name="basis" >
     <v>       2.49608693       0.00000000       0.00000000 </v>
     <v>      -1.24804347       2.16167457       0.00000000 </v>
     <v>       0.00000000       0.00000000      18.34241797 </v>
    </varray>
    <i name="volume">     98.97069188 </i>
    <varray name="rec_basis" >
     <v>       0.40062707       0.23130216       0.00000000 </v>
     <v>       0.00000000       0.46260432       0.00000000 </v>
     <v>       0.00000000       0.00000000       0.05451844 </v>
    </varray>
   </crystal>
   <varray name="positions" >
    <v>       0.00000000       0.00000000       0.00000000 </v>
    <v>       0.33333333       0.66666667       0.11111111 </v>
    <v>       0.66666667       0.33333333       0.22222222 </v>
    <v>       0.00000000       0.00000000       0.33302724 </v>
    <v>       0.33333333       0.66666667       0.44451865 </v>
    <v>       0.33333333       0.66666667       0.54020374 </v>
    <v>       0.33333333       0.66666667       0.60315611 </v>
   </varray>
  </structure>
  <varray name="forces" >
   <v>       0.00000000       0.00000000       0.17612257 </v>
   <v>       0.00000000       0.00000000      -0.10462185 </v>
   <v>       0.00000000      -0.00000000      -0.03427123 </v>
   <v>      -0.00000000       0.00000000      -0.08623708 </v>
   <v>      -0.00000000       0.00000000       0.00895199 </v>
   <v>      -0.00000000       0.00000000       0.01695329 </v>
   <v>       0.00000000       0.00000000       0.02310230 </v>
  </varray>
  <varray name="stress" >
   <v>      43.62028666       0.00000000      -0.00000000 </v>
   <v>       0.00000000      43.62028172       0.00000000 </v>
   <v>       0.00000000       0.00000000     -22.35720013 </v>
  </varray>
  <energy>
   <i name="e_fr_energy">    -40.83331708 </i>
   <i name="e_wo_entrp">    -40.82875841 </i>
   <i name="e_0_energy">     -0.01823468 </i>
  </energy>
  <time name="totalsc">    1.73    1.74</time>
  <eigenvalues>
   <array>
    <dimension dim="1">band</dimension>
    <dimension dim="2">kpoint</dimension>
    <dimension dim="3">spin</dimension>
    <field>eigene</field>
    <field>occ</field>
    <set>
     <set comment="spin 1">
      <set comment="kpoint 1">
       <r>  -23.0595    1.0000 </r>
       <r>  -10.1657    1.0000 </r>
       <r>   -6.7744    1.0000 </r>
       <r>   -6.3618    1.0000 </r>
       <r>   -5.4803    1.0000 </r>
       <r>   -4.1738    1.0000 </r>
       <r>   -3.2256    1.0000 </r>
       <r>   -2.7609    1.0000 </r>
       <r>   -2.1381    1.0000 </r>
       <r>   -2.1364    1.0000 </r>
       <r>   -0.5528    1.0000 </r>
       <r>   -0.2822    1.0000 </r>
       <r>   -0.2079    1.0000 </r>
       <r>   -0.2079    1.0000 </r>
       <r>   -0.1579    1.0000 </r>
       <r>   -0.1579    1.0000 </r>
       <r>   -0.1462    1.0000 </r>
       <r>   -0.0607    1.0000 </r>
       <r>   -0.0607    1.0000 </r>
       <r>   -0.0020    1.0000 </r>
       <r>   -0.0019    1.0000 </r>
       <r>    0.1821    1.0000 </r>
       <r>    0.1821    1.0000 </r>
       <r>    0.3294    1.0000 </r>
       <r>    0.4276    1.0000 </r>
       <r>    0.4276    1.0000 </r>
       <r>    0.9527    1.0000 </r>
       <r>    0.9527    1.0000 </r>
       <r>    1.0718    0.9997 </r>
       <r>    1.0718    0.9997 </r>
       <r>    1.3961    1.0191 </r>
       <r>    1.3961    1.0191 </r>
       <r>    1.6510    0.6293 </r>
       <r>    1.6510    0.6293 </r>
       <r>    1.8954   -0.0462 </r>
       <r>    6.5921    0.0000 </r>
      </set>
      <set comment="kpoint 2">
       <r>  -22.9174    1.0000 </r>
       <r>   -9.9152    1.0000 </r>
       <r>   -6.4798    1.0000 </r>
       <r>   -6.1028    1.0000 </r>
       <r>   -5.1474    1.0000 </r>
       <r>   -3.8566    1.0000 </r>
       <r>   -2.9412    1.0000 </r>
       <r>   -2.7105    1.0000 </r>
       <r>   -2.4512    1.0000 </r>
       <r>   -2.2734    1.0000 </r>
       <r>   -0.7180    1.0000 </r>
       <r>   -0.4886    1.0000 </r>
       <r>   -0.4211    1.0000 </r>
       <r>   -0.3227    1.0000 </r>
       <r>   -0.2251    1.0000 </r>
       <r>   -0.1656    1.0000 </r>
       <r>   -0.0756    1.0000 </r>
       <r>   -0.0334    1.0000 </r>
       <r>   -0.0065    1.0000 </r>
       <r>    0.0694    1.0000 </r>
       <r>    0.1028    1.0000 </r>
       <r>    0.1352    1.0000 </r>
       <r>    0.1457    1.0000 </r>
       <r>    0.3276    1.0000 </r>
       <r>    0.4097    1.0000 </r>
       <r>    0.4390    1.0000 </r>
       <r>    0.8212    1.0000 </r>
       <r>    0.8731    1.0000 </r>
       <r>    0.9405    1.0000 </r>
       <r>    1.0937    0.9996 </r>
       <r>    1.2755    0.9951 </r>
       <r>    1.4015    1.0216 </r>
       <r>    1.6578    0.5942 </r>
       <r>    1.9835   -0.0083 </r>
       <r>    3.1272    0.0000 </r>
       <r>    6.7990    0.0000 </r>
      </set>
      <set comment="kpoint 3">
       <r>  -22.5387    1.0000 </r>
       <r>   -9.2184    1.0000 </r>
       <r>   -6.1856    1.0000 </r>
       <r>   -5.0816    1.0000 </r>
       <r>   -4.3147    1.0000 </r>
       <r>   -3.7699    1.0000 </r>
       <r>   -2.9627    1.0000 </r>
       <r>   -2.6126    1.0000 </r>
       <r>   -2.2503    1.0000 </r>
       <r>   -1.8079    1.0000 </r>
       <r>   -1.1759    1.0000 </r>
       <r>   -0.9462    1.0000 </r>
       <r>   -0.7238    1.0000 </r>
       <r>   -0.6140    1.0000 </r>
       <r>   -0.5542    1.0000 </r>
       <r>   -0.3415    1.0000 </r>
       <r>   -0.1394    1.0000 </r>
       <r>   -0.0459    1.0000 </r>
       <r>   -0.0396    1.0000 </r>
       <r>    0.1418    1.0000 </r>
       <r>    0.2676    1.0000 </r>
       <r>    0.3232    1.0000 </r>
       <r>    0.4093    1.0000 </r>
       <r>    0.5298    1.0000 </r>
       <r>    0.6394    1.0000 </r>
       <r>    0.6533    1.0000 </r>
       <r>    0.7591    1.0000 </r>
       <r>    0.9316    1.0000 </r>
       <r>    0.9977    1.0000 </r>
       <r>    1.1429    0.9988 </r>
       <r>    1.4061    1.0237 </r>
       <r>    1.6715    0.5223 </r>
       <r>    1.7185    0.2818 </r>
       <r>    2.9808    0.0000 </r>
       <r>    4.7652    0.0000 </r>
       <r>    5.3757    0.0000 </r>
      </set>
      <set comment="kpoint 4">
       <r>  -22.0623    1.0000 </r>
       <r>   -8.2801    1.0000 </r>
       <r>   -6.5324    1.0000 </r>
       <r>   -4.6441    1.0000 </r>
       <r>   -3.4944    1.0000 </r>
       <r>   -2.9691    1.0000 </r>
       <r>   -2.9388    1.0000 </r>
       <r>   -2.3566    1.0000 </r>
       <r>   -1.9430    1.0000 </r>
       <r>   -1.6790    1.0000 </r>
       <r>   -1.5377    1.0000 </r>
       <r>   -1.3237    1.0000 </r>
       <r>   -1.0054    1.0000 </r>
       <r>   -0.6706    1.0000 </r>
       <r>   -0.4339    1.0000 </r>
       <r>   -0.3173    1.0000 </r>
       <r>   -0.1632    1.0000 </r>
       <r>   -0.0620    1.0000 </r>
       <r>    0.0732    1.0000 </r>
       <r>    0.1967    1.0000 </r>
       <r>    0.4297    1.0000 </r>
       <r>    0.6401    1.0000 </r>
       <r>    0.6892    1.0000 </r>
       <r>    0.9952    1.0000 </r>
       <r>    1.1280    0.9991 </r>
       <r>    1.2187    0.9964 </r>
       <r>    1.2468    0.9954 </r>
       <r>    1.3240    0.9981 </r>
       <r>    1.3528    1.0038 </r>
       <r>    1.4069    1.0240 </r>
       <r>    1.4867    1.0516 </r>
       <r>    1.6889    0.4304 </r>
       <r>    2.2809    0.0003 </r>
       <r>    3.6437    0.0000 </r>
       <r>    4.2443    0.0000 </r>
       <r>    6.4693    0.0000 </r>
      </set>
      <set comment="kpoint 5">
       <r>  -21.7202    1.0000 </r>
       <r>   -7.7032    1.0000 </r>
       <r>   -6.9230    1.0000 </r>
       <r>   -4.5960    1.0000 </r>
       <r>   -3.1967    1.0000 </r>
       <r>   -2.6037    1.0000 </r>
       <r>   -2.4461    1.0000 </r>
       <r>   -2.2512    1.0000 </r>
       <r>   -2.0355    1.0000 </r>
       <r>   -1.8462    1.0000 </r>
       <r>   -1.7354    1.0000 </r>
       <r>   -1.6384    1.0000 </r>
       <r>   -1.2875    1.0000 </r>
       <r>   -0.6854    1.0000 </r>
       <r>   -0.2638    1.0000 </r>
       <r>   -0.2425    1.0000 </r>
       <r>   -0.0998    1.0000 </r>
       <r>    0.1101    1.0000 </r>
       <r>    0.2011    1.0000 </r>
       <r>    0.4449    1.0000 </r>
       <r>    0.6304    1.0000 </r>
       <r>    1.1576    0.9984 </r>
       <r>    1.2044    0.9969 </r>
       <r>    1.4618    1.0480 </r>
       <r>    1.4652    1.0490 </r>
       <r>    1.5809    0.9236 </r>
       <r>    1.6301    0.7319 </r>
       <r>    1.6778    0.4888 </r>
       <r>    1.7436    0.1712 </r>
       <r>    1.8328   -0.0390 </r>
       <r>    1.9048   -0.0426 </r>
       <r>    2.4262    0.0000 </r>
       <r>    3.0515    0.0000 </r>
       <r>    3.7689    0.0000 </r>
       <r>    5.1222    0.0000 </r>
       <r>    6.0627    0.0000 </r>
      </set>
      <set comment="kpoint 6">
       <r>  -22.6571    1.0000 </r>
       <r>   -9.4405    1.0000 </r>
       <r>   -6.2150    1.0000 </r>
       <r>   -5.4241    1.0000 </r>
       <r>   -4.5170    1.0000 </r>
       <r>   -3.5648    1.0000 </r>
       <r>   -3.1511    1.0000 </r>
       <r>   -2.6057    1.0000 </r>
       <r>   -2.4154    1.0000 </r>
       <r>   -1.9596    1.0000 </r>
       <r>   -0.9900    1.0000 </r>
       <r>   -0.8232    1.0000 </r>
       <r>   -0.6920    1.0000 </r>
       <r>   -0.5478    1.0000 </r>
       <r>   -0.4673    1.0000 </r>
       <r>   -0.4352    1.0000 </r>
       <r>   -0.1620    1.0000 </r>
       <r>   -0.0845    1.0000 </r>
       <r>   -0.0235    1.0000 </r>
       <r>    0.1187    1.0000 </r>
       <r>    0.2242    1.0000 </r>
       <r>    0.3071    1.0000 </r>
       <r>    0.4326    1.0000 </r>
       <r>    0.4536    1.0000 </r>
       <r>    0.5737    1.0000 </r>
       <r>    0.6418    1.0000 </r>
       <r>    0.6619    1.0000 </r>
       <r>    0.7821    1.0000 </r>
       <r>    1.0475    0.9998 </r>
       <r>    1.2127    0.9966 </r>
       <r>    1.2382    0.9957 </r>
       <r>    1.5702    0.9536 </r>
       <r>    1.7149    0.2991 </r>
       <r>    2.7132    0.0000 </r>
       <r>    4.3164    0.0000 </r>
       <r>    5.9548    0.0000 </r>
      </set>
      <set comment="kpoint 7">
       <r>  -22.2257    1.0000 </r>
       <r>   -8.6076    1.0000 </r>
       <r>   -6.2585    1.0000 </r>
       <r>   -4.4805    1.0000 </r>
       <r>   -3.9675    1.0000 </r>
       <r>   -3.2409    1.0000 </r>
       <r>   -3.1413    1.0000 </r>
       <r>   -2.3944    1.0000 </r>
       <r>   -1.8366    1.0000 </r>
       <r>   -1.5129    1.0000 </r>
       <r>   -1.3188    1.0000 </r>
       <r>   -1.0849    1.0000 </r>
       <r>   -0.8923    1.0000 </r>
       <r>   -0.8335    1.0000 </r>
       <r>   -0.7202    1.0000 </r>
       <r>   -0.5222    1.0000 </r>
       <r>   -0.2573    1.0000 </r>
       <r>   -0.1882    1.0000 </r>
       <r>   -0.1451    1.0000 </r>
       <r>   -0.0175    1.0000 </r>
       <r>    0.2095    1.0000 </r>
       <r>    0.4197    1.0000 </r>
       <r>    0.6467    1.0000 </r>
       <r>    0.7126    1.0000 </r>
       <r>    0.8286    1.0000 </r>
       <r>    1.0236    0.9999 </r>
       <r>    1.1346    0.9990 </r>
       <r>    1.2261    0.9961 </r>
       <r>    1.3668    1.0079 </r>
       <r>    1.4244    1.0324 </r>
       <r>    1.5210    1.0370 </r>
       <r>    1.5782    0.9317 </r>
       <r>    2.2271    0.0008 </r>
       <r>    3.7951    0.0000 </r>
       <r>    4.4675    0.0000 </r>
       <r>    5.9467    0.0000 </r>
      </set>
      <set comment="kpoint 8">
       <r>  -21.8078    1.0000 </r>
       <r>   -7.7522    1.0000 </r>
       <r>   -6.7215    1.0000 </r>
       <r>   -4.5915    1.0000 </r>
       <r>   -3.5600    1.0000 </r>
       <r>   -2.6738    1.0000 </r>
       <r>   -2.4195    1.0000 </r>
       <r>   -2.1338    1.0000 </r>
       <r>   -1.8146    1.0000 </r>
       <r>   -1.6962    1.0000 </r>
       <r>   -1.5263    1.0000 </r>
       <r>   -1.3442    1.0000 </r>
       <r>   -1.1229    1.0000 </r>
       <r>   -0.7508    1.0000 </r>
       <r>   -0.4711    1.0000 </r>
       <r>   -0.4000    1.0000 </r>
       <r>   -0.2262    1.0000 </r>
       <r>   -0.1647    1.0000 </r>
       <r>    0.0122    1.0000 </r>
       <r>    0.2457    1.0000 </r>
       <r>    0.3836    1.0000 </r>
       <r>    0.6342    1.0000 </r>
       <r>    0.7566    1.0000 </r>
       <r>    1.0869    0.9996 </r>
       <r>    1.2089    0.9968 </r>
       <r>    1.3232    0.9980 </r>
       <r>    1.4396    1.0395 </r>
       <r>    1.5503    0.9979 </r>
       <r>    1.6663    0.5496 </r>
       <r>    1.7325    0.2178 </r>
       <r>    2.1803    0.0019 </r>
       <r>    2.4683    0.0000 </r>
       <r>    2.9540    0.0000 </r>
       <r>    3.6951    0.0000 </r>
       <r>    5.2801    0.0000 </r>
       <r>    5.9752    0.0000 </r>
      </set>
      <set comment="kpoint 9">
       <r>  -21.6310    1.0000 </r>
       <r>   -7.5079    1.0000 </r>
       <r>   -6.8209    1.0000 </r>
       <r>   -4.5834    1.0000 </r>
       <r>   -3.6863    1.0000 </r>
       <r>   -2.3947    1.0000 </r>
       <r>   -2.2250    1.0000 </r>
       <r>   -2.0613    1.0000 </r>
       <r>   -1.8890    1.0000 </r>
       <r>   -1.6798    1.0000 </r>
       <r>   -1.6293    1.0000 </r>
       <r>   -1.5714    1.0000 </r>
       <r>   -1.2492    1.0000 </r>
       <r>   -0.7414    1.0000 </r>
       <r>   -0.4781    1.0000 </r>
       <r>   -0.3136    1.0000 </r>
       <r>   -0.1760    1.0000 </r>
       <r>    0.0201    1.0000 </r>
       <r>    0.1758    1.0000 </r>
       <r>    0.2086    1.0000 </r>
       <r>    0.6916    1.0000 </r>
       <r>    0.7229    1.0000 </r>
       <r>    1.0677    0.9998 </r>
       <r>    1.2192    0.9964 </r>
       <r>    1.4780    1.0513 </r>
       <r>    1.5111    1.0442 </r>
       <r>    1.6073    0.8310 </r>
       <r>    1.6218    0.7696 </r>
       <r>    1.7401    0.1855 </r>
       <r>    1.9187   -0.0364 </r>
       <r>    2.0264    0.0017 </r>
       <r>    3.5769    0.0000 </r>
       <r>    4.3151    0.0000 </r>
       <r>    4.8654    0.0000 </r>
       <r>    5.2314    0.0000 </r>
       <r>    5.7209    0.0000 </r>
      </set>
      <set comment="kpoint 10">
       <r>  -21.8436    1.0000 </r>
       <r>   -7.7965    1.0000 </r>
       <r>   -6.4515    1.0000 </r>
       <r>   -4.4060    1.0000 </r>
       <r>   -4.1343    1.0000 </r>
       <r>   -2.6789    1.0000 </r>
       <r>   -2.3154    1.0000 </r>
       <r>   -1.9079    1.0000 </r>
       <r>   -1.6305    1.0000 </r>
       <r>   -1.3675    1.0000 </r>
       <r>   -1.2558    1.0000 </r>
       <r>   -1.1250    1.0000 </r>
       <r>   -1.0322    1.0000 </r>
       <r>   -0.9318    1.0000 </r>
       <r>   -0.7501    1.0000 </r>
       <r>   -0.5753    1.0000 </r>
       <r>   -0.4893    1.0000 </r>
       <r>   -0.3569    1.0000 </r>
       <r>   -0.3083    1.0000 </r>
       <r>   -0.1328    1.0000 </r>
       <r>    0.2561    1.0000 </r>
       <r>    0.4264    1.0000 </r>
       <r>    0.6011    1.0000 </r>
       <r>    0.8667    1.0000 </r>
       <r>    0.9362    1.0000 </r>
       <r>    1.1181    0.9993 </r>
       <r>    1.4525    1.0449 </r>
       <r>    1.5782    0.9318 </r>
       <r>    1.6587    0.5896 </r>
       <r>    1.7426    0.1751 </r>
       <r>    2.3727    0.0000 </r>
       <r>    2.5784    0.0000 </r>
       <r>    3.2953    0.0000 </r>
       <r>    3.9096    0.0000 </r>
       <r>    5.2127    0.0000 </r>
       <r>    5.3692    0.0000 </r>
      </set>
      <set comment="kpoint 11">
       <r>  -21.5779    1.0000 </r>
       <r>   -7.1178    1.0000 </r>
       <r>   -6.5733    1.0000 </r>
       <r>   -4.9705    1.0000 </r>
       <r>   -4.2485    1.0000 </r>
       <r>   -2.0310    1.0000 </r>
       <r>   -1.8326    1.0000 </r>
       <r>   -1.7235    1.0000 </r>
       <r>   -1.5117    1.0000 </r>
       <r>   -1.4654    1.0000 </r>
       <r>   -1.2776    1.0000 </r>
       <r>   -1.1847    1.0000 </r>
       <r>   -1.0128    1.0000 </r>
       <r>   -0.8889    1.0000 </r>
       <r>   -0.8366    1.0000 </r>
       <r>   -0.6218    1.0000 </r>
       <r>   -0.5880    1.0000 </r>
       <r>   -0.3404    1.0000 </r>
       <r>   -0.1050    1.0000 </r>
       <r>    0.1556    1.0000 </r>
       <r>    0.2955    1.0000 </r>
       <r>    0.4098    1.0000 </r>
       <r>    0.6790    1.0000 </r>
       <r>    0.9405    1.0000 </r>
       <r>    1.1280    0.9991 </r>
       <r>    1.2821    0.9952 </r>
       <r>    1.5203    1.0377 </r>
       <r>    1.6104    0.8183 </r>
       <r>    1.7265    0.2444 </r>
       <r>    1.8830   -0.0498 </r>
       <r>    2.5810    0.0000 </r>
       <r>    4.1874    0.0000 </r>
       <r>    4.4296    0.0000 </r>
       <r>    4.7602    0.0000 </r>
       <r>    5.7465    0.0000 </r>
       <r>    7.0077    0.0000 </r>
      </set>
      <set comment="kpoint 12">
       <r>  -21.4854    1.0000 </r>
       <r>   -6.4719    1.0000 </r>
       <r>   -6.1640    1.0000 </r>
       <r>   -6.1629    1.0000 </r>
       <r>   -4.2316    1.0000 </r>
       <r>   -1.6305    1.0000 </r>
       <r>   -1.5563    1.0000 </r>
       <r>   -1.3848    1.0000 </r>
       <r>   -1.3418    1.0000 </r>
       <r>   -1.2955    1.0000 </r>
       <r>   -1.2861    1.0000 </r>
       <r>   -1.1913    1.0000 </r>
       <r>   -1.0805    1.0000 </r>
       <r>   -0.9639    1.0000 </r>
       <r>   -0.9209    1.0000 </r>
       <r>   -0.6977    1.0000 </r>
       <r>   -0.5749    1.0000 </r>
       <r>   -0.4768    1.0000 </r>
       <r>   -0.3593    1.0000 </r>
       <r>    0.0311    1.0000 </r>
       <r>    0.1475    1.0000 </r>
       <r>    0.5418    1.0000 </r>
       <r>    0.7836    1.0000 </r>
       <r>    0.8096    1.0000 </r>
       <r>    0.9751    1.0000 </r>
       <r>    1.4049    1.0231 </r>
       <r>    1.5195    1.0383 </r>
       <r>    1.5396    1.0156 </r>
       <r>    1.5561    0.9866 </r>
       <r>    1.9079   -0.0412 </r>
       <r>    3.1378    0.0000 </r>
       <r>    3.1700    0.0000 </r>
       <r>    6.7604    0.0000 </r>
       <r>    6.8500    0.0000 </r>
       <r>    7.0815    0.0000 </r>
       <r>    7.3192    0.0000 </r>
      </set>
     </set>
    </set>
   </array>
  </eigenvalues>
  <separator name="orbital magnetization" >
   <v name="MAGDIPOLOUT">      0.00000000      0.00000000      0.00000000</v>
  </separator>
 </calculation>
 <structure name="finalpos" >
  <crystal>
   <varray name="basis" >
    <v>       2.49608693       0.00000000       0.00000000 </v>
    <v>      -1.24804347       2.16167457       0.00000000 </v>
    <v>       0.00000000       0.00000000      18.34241797 </v>
   </varray>
   <i name="volume">     98.97069188 </i>
   <varray name="rec_basis" >
    <v>       0.40062707       0.23130216       0.00000000 </v>
    <v>       0.00000000       0.46260432       0.00000000 </v>
    <v>       0.00000000       0.00000000       0.05451844 </v>
   </varray>
  </crystal>
  <varray name="positions" >
   <v>       0.00000000       0.00000000       0.00000000 </v>
   <v>       0.33333333       0.66666667       0.11111111 </v>
   <v>       0.66666667       0.33333333       0.22222222 </v>
   <v>       0.00000000       0.00000000       0.33302724 </v>
   <v>       0.33333333       0.66666667       0.44451865 </v>
   <v>       0.33333333       0.66666667       0.54020374 </v>
   <v>       0.33333333       0.66666667       0.60315611 </v>
  </varray>
  <varray name="selective"  type="logical" >
   <v type="logical" >  F  F  F </v>
   <v type="logical" >  F  F  F </v>
   <v type="logical" >  F  F  F </v>
   <v type="logical" >  T  T  T </v>
   <v type="logical" >  T  T  T </v>
   <v type="logical" >  T  T  T </v>
   <v type="logical" >  T  T  T </v>
  </varray>
  <nose>
   <v>      -3.00000000       0.00000000       0.00010000       0.00010000 </v>
  </nose>
 </structure>
</modeling>
